ITEM: TIMESTEP
75000
ITEM: NUMBER OF ATOMS
1360
ITEM: BOX BOUNDS pp pp pp
-1.5000000000000000e+00 1.2500000000000000e+01
-1.5000000000000000e+00 1.2500000000000000e+01
-2.7500000000000000e+01 2.7500000000000000e+01
ITEM: ATOMS id mol type q x y z
1 1 3 0.41 0.226745 0.00552417 6.81743
2 1 3 0.41 -0.0326642 1.57583 6.43546
3 1 5 -0.82 0.441808 0.739697 6.14868
4 2 3 0.41 2.87565 10.4507 -10.2725
5 2 3 0.41 3.47301 9.08444 -9.72762
6 2 5 -0.82 3.70596 10.0687 -9.80689
7 3 3 0.41 1.63642 2.42715 11.7521
8 3 3 0.41 2.0937 2.08941 13.327
9 3 5 -0.82 1.28932 2.21914 12.6966
10 4 3 0.41 2.1535 5.37604 -16.5812
11 4 3 0.41 1.30127 4.54027 -15.5088
12 4 5 -0.82 2.26545 4.69021 -15.8188
13 5 3 0.41 -0.427397 4.06708 -10.9388
14 5 3 0.41 -1.38783 5.32363 -10.8084
15 5 5 -0.82 -0.596243 4.86516 -10.3604
16 6 3 0.41 -0.296491 6.27317 -14.3177
17 6 3 0.41 0.250938 7.3677 -13.2287
18 6 5 -0.82 -0.152798 7.26717 -14.1084
19 7 3 0.41 1.46375 4.03005 -21.9868
20 7 3 0.41 0.101334 4.64498 -21.3194
21 7 5 -0.82 0.822596 4.81772 -22.0129
22 8 3 0.41 11.4073 1.69531 12.258
23 8 3 0.41 12.3357 0.452212 12.2148
24 8 5 -0.82 12.361 1.47444 12.0655
25 9 3 0.41 -1.386 -0.307462 -9.9822
26 9 3 0.41 12.4864 1.16449 -9.35427
27 9 5 -0.82 11.9853 0.442411 -9.83823
28 10 3 0.41 2.97443 7.392 -6.80624
29 10 3 0.41 3.01658 7.76344 -8.27435
30 10 5 -0.82 2.61302 8.08574 -7.39639
31 11 3 0.41 4.25042 -0.926133 -5.639
32 11 3 0.41 3.48292 0.121849 -6.60209
33 11 5 -0.82 3.37298 -0.442758 -5.73464
34 12 3 0.41 3.63393 10.6259 -17.1234
35 12 3 0.41 4.79668 9.92161 -16.0948
36 12 5 -0.82 4.56285 10.6747 -16.7047
37 13 3 0.41 0.67586 12.0819 10.9393
38 13 3 0.41 -0.105269 11.7763 9.61159
39 13 5 -0.82 -0.252621 11.7464 10.6355
40 14 3 0.41 4.03776 -0.954748 -16.9636
41 14 3 0.41 2.50185 -0.391407 -17.0973
42 14 5 -0.82 3.20154 -0.884147 -17.6113
43 15 3 0.41 6.99288 5.0912 13.4274
44 15 3 0.41 6.79546 3.56068 12.6905
45 15 5 -0.82 6.38153 4.27607 13.294
46 16 3 0.41 2.23422 10.2431 17.6529
47 16 3 0.41 2.25558 10.7127 19.2812
48 16 5 -0.82 2.78326 10.6622 18.4043
49 17 3 0.41 5.31892 0.134019 21.4566
50 17 3 0.41 4.167 0.419248 20.374
51 17 5 -0.82 4.47369 0.645593 21.3325
52 18 3 0.41 9.71673 11.4201 -17.2918
53 18 3 0.41 11.0244 10.6403 -16.8951
54 18 5 -0.82 10.2035 10.5217 -17.4897
55 19 3 0.41 9.93252 5.99473 6.3166
56 19 3 0.41 8.63963 6.30958 7.21418
57 19 5 -0.82 9.61926 6.6105 7.12388
58 20 3 0.41 9.77705 4.51062 -1.879
59 20 3 0.41 10.8661 5.76034 -1.4388
60 20 5 -0.82 10.4191 5.22739 -2.16415
61 21 3 0.41 -1.46359 2.82447 23.0024
62 21 3 0.41 -0.885436 3.7929 21.9424
63 21 5 -0.82 12.3278 3.19302 22.0946
64 22 3 0.41 3.788 4.54483 -16.4536
65 22 3 0.41 5.09259 5.14255 -15.7081
66 22 5 -0.82 4.81669 4.6167 -16.5621
67 23 3 0.41 1.42826 10.1735 -21.3775
68 23 3 0.41 2.31456 11.2285 -22.2547
69 23 5 -0.82 2.16698 10.2637 -22.0688
70 24 3 0.41 2.87872 6.6285 -10.3496
71 24 3 0.41 4.20272 7.21603 -9.66814
72 24 5 -0.82 3.2033 7.43295 -9.75702
73 25 3 0.41 1.91218 0.646854 -15.2013
74 25 3 0.41 1.45855 2.18946 -14.493
75 25 5 -0.82 1.68633 1.64552 -15.3166
76 26 3 0.41 8.81463 11.1731 -8.78071
77 26 3 0.41 7.68833 10.2404 -7.97804
78 26 5 -0.82 8.01405 10.5515 -8.84814
79 27 3 0.41 1.62686 9.75081 -16.3744
80 27 3 0.41 1.08365 9.8612 -17.8797
81 27 5 -0.82 1.88598 9.60492 -17.2874
82 28 3 0.41 -0.247395 5.97685 -8.50363
83 28 3 0.41 -0.120614 6.35671 -6.84946
84 28 5 -0.82 -0.608528 5.79013 -7.57048
85 29 3 0.41 11.3567 12.4765 19.3893
86 29 3 0.41 -0.989792 12.3137 19.1717
87 29 5 -0.82 12.1937 11.9875 19.6994
88 30 3 0.41 11.8012 10.8514 9.1177
89 30 3 0.41 11.3385 11.3232 7.58657
90 30 5 -0.82 11.9551 11.5258 8.38181
91 31 3 0.41 7.45736 11.4461 -17.2357
92 31 3 0.41 6.27938 12.3856 -17.7553
93 31 5 -0.82 7.21743 12.0671 -17.9418
94 32 3 0.41 10.456 3.57132 -21.7964
95 32 3 0.41 11.8114 4.40976 -21.5968
96 32 5 -0.82 11.4454 3.52084 -21.9253
97 33 3 0.41 11.5974 0.623641 -5.68522
98 33 3 0.41 11.5253 1.17425 -7.21959
99 33 5 -0.82 11.3832 0.366541 -6.60976
100 34 3 0.41 11.8549 10.1486 4.00823
101 34 3 0.41 10.4215 10.6932 3.57068
102 34 5 -0.82 11.3572 10.6074 3.24188
103 35 3 0.41 -1.25134 5.61618 11.8593
104 35 3 0.41 11.8464 6.5552 12.8423
105 35 5 -0.82 12.3607 6.58849 11.9163
106 36 3 0.41 7.65959 6.5026 -4.02109
107 36 3 0.41 7.85103 5.74395 -2.60757
108 36 5 -0.82 7.86119 6.69442 -3.07768
109 37 3 0.41 10.6437 9.64349 20.3132
110 37 3 0.41 10.4716 8.05147 20.1612
111 37 5 -0.82 10.957 8.84481 19.7803
112 38 3 0.41 8.72465 11.8019 -2.65697
113 38 3 0.41 9.67104 10.5295 -2.33647
114 38 5 -0.82 9.43115 11.2085 -3.05191
115 39 3 0.41 5.33718 8.11505 -14.8638
116 39 3 0.41 5.25368 9.52455 -14.0149
117 39 5 -0.82 5.73225 9.02134 -14.8076
118 40 3 0.41 3.00941 11.8811 -18.8242
119 40 3 0.41 4.02637 10.9872 -19.7576
120 40 5 -0.82 3.04279 11.2032 -19.561
121 41 3 0.41 5.59022 1.06857 -19.1385
122 41 3 0.41 4.83029 0.199647 -20.3219
123 41 5 -0.82 5.70765 0.305551 -19.8134
124 42 3 0.41 5.35941 4.3229 3.86813
125 42 3 0.41 6.58346 3.52956 3.18313
126 42 5 -0.82 5.60799 3.58895 3.16683
127 43 3 0.41 9.63344 11.5364 13.8657
128 43 3 0.41 8.35199 10.5731 13.5218
129 43 5 -0.82 8.94692 11.3141 13.1536
130 44 3 0.41 2.59115 2.22134 -16.7504
131 44 3 0.41 2.10103 2.59583 -18.2583
132 44 5 -0.82 2.92161 2.45261 -17.668
133 45 3 0.41 7.88559 1.69437 1.68284
134 45 3 0.41 6.84036 1.27379 0.516674
135 45 5 -0.82 7.34934 2.05335 0.903573
136 46 3 0.41 0.729989 0.614891 10.2753
137 46 3 0.41 -0.463136 1.52236 10.8848
138 46 5 -0.82 0.00613128 1.31708 10.006
139 47 3 0.41 0.0833176 11.0658 -2.1991
140 47 3 0.41 1.3132 11.005 -1.2001
141 47 5 -0.82 0.817897 10.4163 -1.89996
142 48 3 0.41 0.312967 2.30207 16.4189
143 48 3 0.41 1.74152 1.47533 16.7989
144 48 5 -0.82 1.01382 2.10347 17.1828
145 49 3 0.41 11.6106 -1.33865 -6.10459
146 49 3 0.41 11.5689 11.0961 -6.0316
147 49 5 -0.82 11.6939 11.8899 -5.48259
148 50 3 0.41 -0.390043 11.475 23.0259
149 50 3 0.41 -1.18789 12.4074 21.9195
150 50 5 -0.82 -0.249133 12.1163 22.222
151 51 3 0.41 3.86572 11.8454 11.678
152 51 3 0.41 5.36974 12.1583 12.2884
153 51 5 -0.82 4.58957 11.5221 12.3039
154 52 3 0.41 -0.690536 1.2885 -13.9713
155 52 3 0.41 -1.36981 0.825222 -15.3784
156 52 5 -0.82 -1.2633 0.563268 -14.4397
157 53 3 0.41 0.730888 2.67236 1.73242
158 53 3 0.41 0.0828698 3.91602 0.815872
159 53 5 -0.82 0.330702 3.62125 1.77335
160 54 3 0.41 7.24566 6.92258 11.9211
161 54 3 0.41 8.05362 7.32273 13.3034
162 54 5 -0.82 7.31614 6.71853 12.9408
163 55 3 0.41 0.9695 6.0015 15.2688
164 55 3 0.41 0.22205 7.09584 14.4146
165 55 5 -0.82 0.292991 6.7156 15.3933
166 56 3 0.41 12.4647 3.43523 9.08308
167 56 3 0.41 0.0297592 3.95455 9.22442
168 56 5 -0.82 -0.782064 4.02635 8.61631
169 57 3 0.41 5.19754 -0.780358 -14.9583
170 57 3 0.41 6.32709 -0.150947 -15.9034
171 57 5 -0.82 5.38806 -0.50744 -15.9595
172 58 3 0.41 0.281563 7.04195 -15.7397
173 58 3 0.41 0.220412 7.55131 -17.388
174 58 5 -0.82 0.439897 6.74845 -16.7218
175 59 3 0.41 -1.03864 4.87333 6.75305
176 59 3 0.41 -0.25804 6.1851 6.43141
177 59 5 -0.82 -1.19378 5.7576 6.35154
178 60 3 0.41 4.70109 6.4956 4.92941
179 60 3 0.41 6.06276 5.62547 4.97231
180 60 5 -0.82 5.09542 5.51886 4.76873
181 61 3 0.41 12.4051 12.3754 11.7796
182 61 3 0.41 11.8068 -1.44486 13.2674
183 61 5 -0.82 11.6917 -1.10042 12.3079
184 62 3 0.41 0.645408 3.89936 7.19466
185 62 3 0.41 1.44426 4.39992 5.93156
186 62 5 -0.82 0.955892 3.59247 6.28839
187 63 3 0.41 2.83813 6.0165 20.8451
188 63 3 0.41 2.16179 5.25842 19.5921
189 63 5 -0.82 2.27402 6.18749 19.9836
190 64 3 0.41 8.599 -1.38296 7.8789
191 64 3 0.41 7.40819 -1.44673 6.96763
192 64 5 -0.82 8.06266 11.8732 7.42042
193 65 3 0.41 -1.17501 3.63707 -4.54901
194 65 3 0.41 -0.313695 4.45854 -3.43068
195 65 5 -0.82 -0.401855 3.53023 -3.88344
196 66 3 0.41 -1.43243 1.23874 2.1749
197 66 3 0.41 -0.722055 1.2997 0.7023
198 66 5 -0.82 12.4263 1.61965 1.21244
199 67 3 0.41 6.67806 10.8819 9.98044
200 67 3 0.41 7.5692 10.8145 8.69698
201 67 5 -0.82 7.00627 10.1993 9.33697
202 68 3 0.41 6.94729 5.50903 20.6974
203 68 3 0.41 6.4693 5.13868 19.1042
204 68 5 -0.82 7.28697 5.47683 19.6889
205 69 3 0.41 -1.41279 12.4399 -22.2342
206 69 3 0.41 11.5294 11.5863 -21.5119
207 69 5 -0.82 11.5776 12.3144 -22.2157
208 70 3 0.41 7.36725 4.12311 -19.5645
209 70 3 0.41 6.0326 3.20521 -19.8725
210 70 5 -0.82 7.02261 3.21387 -19.8981
211 71 3 0.41 4.66464 3.23965 1.72984
212 71 3 0.41 3.72245 2.23115 0.782873
213 71 5 -0.82 3.82079 3.16316 1.15575
214 72 3 0.41 2.22456 7.30547 18.4575
215 72 3 0.41 2.9574 7.46306 17.163
216 72 5 -0.82 2.06353 7.77554 17.602
217 73 3 0.41 10.3083 12.3473 -8.82326
218 73 3 0.41 11.0569 11.0942 -8.16776
219 73 5 -0.82 10.8248 11.5238 -9.07421
220 74 3 0.41 6.64105 8.14911 -0.81694
221 74 3 0.41 6.7905 6.62443 -1.41079
222 74 5 -0.82 6.1546 7.23111 -0.880685
223 75 3 0.41 12.4189 4.47489 -6.49664
224 75 3 0.41 10.9369 4.00347 -6.20266
225 75 5 -0.82 11.8825 3.7306 -6.06312
226 76 3 0.41 4.7147 1.10658 -15.5688
227 76 3 0.41 5.5929 2.20651 -14.9942
228 76 5 -0.82 4.70367 1.76484 -14.8136
229 77 3 0.41 11.4708 8.02406 16.7892
230 77 3 0.41 11.8864 9.56986 16.7049
231 77 5 -0.82 12.1437 8.65291 16.3135
232 78 3 0.41 -1.29795 7.95574 -9.52339
233 78 3 0.41 11.1097 8.2634 -9.95262
234 78 5 -0.82 11.735 7.58944 -9.49622
235 79 3 0.41 -0.486923 12.3053 7.87279
236 79 3 0.41 0.816818 11.4616 7.28536
237 79 5 -0.82 0.520709 12.3754 7.71272
238 80 3 0.41 0.763651 -1.05373 -16.0954
239 80 3 0.41 -0.326554 0.00436922 -16.7453
240 80 5 -0.82 0.071519 -0.896145 -16.8459
241 81 3 0.41 2.4595 -0.0657917 -2.72364
242 81 3 0.41 1.35971 -0.994591 -3.56033
243 81 5 -0.82 1.5716 -0.530074 -2.68315
244 82 3 0.41 5.58246 5.71469 0.656722
245 82 3 0.41 5.25411 5.17475 2.14744
246 82 5 -0.82 5.09724 5.93767 1.50961
247 83 3 0.41 11.8965 10.6952 -2.89677
248 83 3 0.41 12.3959 11.6406 -3.93442
249 83 5 -0.82 -1.3935 11.4067 -2.93879
250 84 3 0.41 6.56367 10.3197 3.72236
251 84 3 0.41 5.73644 9.35368 2.84255
252 84 5 -0.82 6.2298 10.2794 2.76661
253 85 3 0.41 7.49567 9.44918 23.3271
254 85 3 0.41 6.27462 9.1852 22.2236
255 85 5 -0.82 7.27142 9.4111 22.3467
256 86 3 0.41 10.208 6.08927 -16.9741
257 86 3 0.41 9.13315 5.85151 -18.2354
258 86 5 -0.82 9.52207 5.46423 -17.3698
259 87 3 0.41 8.43522 11.5563 1.13239
260 87 3 0.41 7.40516 -1.20908 1.5986
261 87 5 -0.82 8.05946 12.4707 0.864507
262 88 3 0.41 11.5648 5.25735 14.4149
263 88 3 0.41 11.9395 6.33247 15.3526
264 88 5 -0.82 11.6618 6.2477 14.4014
265 89 3 0.41 9.1169 5.33093 -21.6704
266 89 3 0.41 7.82155 4.34981 -21.9655
267 89 5 -0.82 8.84914 4.40087 -21.9255
268 90 3 0.41 8.89868 4.75246 -13.4388
269 90 3 0.41 8.17011 3.41278 -13.4252
270 90 5 -0.82 8.94535 3.88884 -13.016
271 91 3 0.41 2.50475 10.2878 5.97728
272 91 3 0.41 2.61445 10.8436 7.55628
273 91 5 -0.82 2.05854 10.2307 6.91302
274 92 3 0.41 11.7552 3.01364 4.00098
275 92 3 0.41 10.9161 2.10078 3.17947
276 92 5 -0.82 10.7734 2.8035 3.88806
277 93 3 0.41 9.37471 6.26687 11.0321
278 93 3 0.41 9.44598 4.86286 11.9428
279 93 5 -0.82 9.55551 5.26414 11.0428
280 94 3 0.41 2.59802 1.37989 3.92395
281 94 3 0.41 1.18725 1.08394 4.70688
282 94 5 -0.82 1.56694 1.39469 3.79826
283 95 3 0.41 8.56594 1.15991 8.26732
284 95 3 0.41 10.1339 0.618779 8.36074
285 95 5 -0.82 9.17551 0.376893 8.12887
286 96 3 0.41 2.34857 9.62641 10.8875
287 96 3 0.41 2.99876 10.0505 12.2578
288 96 5 -0.82 2.15185 10.1079 11.8107
289 97 3 0.41 9.4982 0.601252 17.336
290 97 3 0.41 9.06443 0.78281 15.7432
291 97 5 -0.82 9.59105 0.206013 16.373
292 98 3 0.41 6.30683 11.6036 -19.5049
293 98 3 0.41 5.58238 12.0719 -20.8497
294 98 5 -0.82 5.57843 11.2929 -20.2
295 99 3 0.41 -0.8507 9.15466 -4.13352
296 99 3 0.41 -0.0711847 8.52716 -5.35156
297 99 5 -0.82 -0.448839 9.39506 -5.05379
298 100 3 0.41 9.53733 9.27188 1.43052
299 100 3 0.41 8.33783 9.97052 2.45406
300 100 5 -0.82 8.82833 10.0396 1.54991
301 101 3 0.41 8.31973 3.88521 -7.09149
302 101 3 0.41 8.07287 5.32365 -6.89366
303 101 5 -0.82 8.73178 4.75199 -7.38161
304 102 3 0.41 8.6077 11.2154 -21.9434
305 102 3 0.41 9.82295 12.1747 -22.2291
306 102 5 -0.82 8.82413 12.1925 -22.262
307 103 3 0.41 8.36727 8.54531 19.281
308 103 3 0.41 7.79074 6.96952 19.0604
309 103 5 -0.82 7.98658 7.8506 18.5673
310 104 3 0.41 10.5425 2.2362 -17.9442
311 104 3 0.41 9.29194 2.10244 -16.9806
312 104 5 -0.82 10.2646 2.27553 -16.9659
313 105 3 0.41 -0.542318 -0.107285 3.86191
314 105 3 0.41 12.3805 0.864388 4.56259
315 105 5 -0.82 -1.3807 0.449385 3.65464
316 106 3 0.41 4.45355 6.08962 -6.40038
317 106 3 0.41 3.28386 5.22851 -5.6526
318 106 5 -0.82 3.47641 5.72099 -6.48473
319 107 3 0.41 1.7381 -1.09169 -7.92773
320 107 3 0.41 3.02556 11.9551 -7.85905
321 107 5 -0.82 2.35525 12.3347 -8.50386
322 108 3 0.41 -1.29556 8.32172 -18.4921
323 108 3 0.41 -0.0818435 9.24323 -19.0622
324 108 5 -0.82 -0.283434 8.44284 -18.4912
325 109 3 0.41 2.18944 7.82302 -20.5041
326 109 3 0.41 2.0406 8.38005 -19.0206
327 109 5 -0.82 2.70172 7.99155 -19.6346
328 110 3 0.41 9.06099 0.726288 3.44253
329 110 3 0.41 9.52934 -0.0897813 2.29377
330 110 5 -0.82 9.155 0.838427 2.45489
331 111 3 0.41 8.4617 6.75914 -10.2652
332 111 3 0.41 8.24253 7.00533 -11.8676
333 111 5 -0.82 8.724 6.43631 -11.154
334 112 3 0.41 10.6333 0.0813476 -22.3457
335 112 3 0.41 10.8375 1.74591 -22.129
336 112 5 -0.82 10.1717 0.936916 -22.149
337 113 3 0.41 4.1755 6.52446 15.2786
338 113 3 0.41 5.15948 7.17106 16.4022
339 113 5 -0.82 4.18563 6.79914 16.2662
340 114 3 0.41 -0.596905 8.96182 -13.7603
341 114 3 0.41 -0.936223 10.2124 -13.0042
342 114 5 -0.82 -0.509485 9.97893 -13.9034
343 115 3 0.41 7.16795 8.87058 8.1052
344 115 3 0.41 7.42745 7.57112 7.27879
345 115 5 -0.82 7.50243 8.57185 7.19337
346 116 3 0.41 6.1487 6.93621 22.2176
347 116 3 0.41 6.33903 5.4351 23.0418
348 116 5 -0.82 6.45441 5.94062 22.147
349 117 3 0.41 10.8291 8.24241 -11.7823
350 117 3 0.41 10.8249 8.75765 -13.278
351 117 5 -0.82 11.2698 8.06256 -12.6879
352 118 3 0.41 3.03361 7.61455 -0.315606
353 118 3 0.41 4.41749 7.25821 -1.10758
354 118 5 -0.82 3.38487 7.2545 -1.20488
355 119 3 0.41 5.27331 0.505437 -3.76159
356 119 3 0.41 5.12423 1.52023 -5.0275
357 119 5 -0.82 5.79457 0.865278 -4.5998
358 120 3 0.41 2.30459 0.685935 8.91644
359 120 3 0.41 1.64524 1.17947 7.50365
360 120 5 -0.82 2.32271 1.41718 8.22189
361 121 3 0.41 7.19014 8.54987 -13.7101
362 121 3 0.41 7.98616 9.05392 -12.4717
363 121 5 -0.82 7.9814 8.29369 -13.1439
364 122 3 0.41 -0.787361 0.126651 14.3267
365 122 3 0.41 0.576034 0.508438 13.4277
366 122 5 -0.82 0.117957 -0.217882 13.9788
367 123 3 0.41 0.504772 12.2756 3.39176
368 123 3 0.41 1.0684 -1.07223 4.78133
369 123 5 -0.82 0.309649 12.4434 4.38453
370 124 3 0.41 10.8916 6.70052 -5.911
371 124 3 0.41 11.7173 6.60413 -7.3645
372 124 5 -0.82 10.9001 6.93013 -6.89624
373 125 3 0.41 11.9183 -0.875008 -13.9447
374 125 3 0.41 10.7595 -1.46581 -12.8836
375 125 5 -0.82 11.0827 -1.43762 -13.8664
376 126 3 0.41 1.86093 -0.45524 -12.5975
377 126 3 0.41 0.461012 -0.0630299 -12
378 126 5 -0.82 1.008 -0.903279 -12.2998
379 127 3 0.41 4.77291 7.1271 18.6375
380 127 3 0.41 5.3829 8.64747 18.5752
381 127 5 -0.82 5.12375 7.86802 19.2212
382 128 3 0.41 9.28525 3.7467 7.19885
383 128 3 0.41 10.2335 3.29188 8.33027
384 128 5 -0.82 10.181 3.27558 7.34407
385 129 3 0.41 7.57048 4.618 -0.524227
386 129 3 0.41 6.61593 4.07 -1.73645
387 129 5 -0.82 7.5206 4.53254 -1.58424
388 130 3 0.41 0.464793 3.28931 -6.83843
389 130 3 0.41 0.977735 1.80728 -7.19374
390 130 5 -0.82 1.27963 2.75643 -7.02259
391 131 3 0.41 -1.00074 11.9771 -16.3949
392 131 3 0.41 -1.239 10.693 -15.4662
393 131 5 -0.82 12.4521 11.146 -16.3049
394 132 3 0.41 1.73417 6.81945 -5.94411
395 132 3 0.41 0.966809 6.98164 -4.60344
396 132 5 -0.82 0.795853 6.74946 -5.56073
397 133 3 0.41 8.57093 1.01822 5.69785
398 133 3 0.41 10.0045 0.932283 5.59074
399 133 5 -0.82 9.18605 0.526958 5.09071
400 134 3 0.41 11.6262 2.07588 -1.82112
401 134 3 0.41 -1.42215 0.998032 -1.24153
402 134 5 -0.82 -1.44484 1.70367 -1.97534
403 135 3 0.41 7.46959 2.24516 -21.2784
404 135 3 0.41 8.48311 1.16301 -22.0784
405 135 5 -0.82 7.57725 1.62195 -22.0357
406 136 3 0.41 1.95923 7.96711 9.28749
407 136 3 0.41 2.23788 9.21776 8.32977
408 136 5 -0.82 2.32711 8.94263 9.31371
409 137 3 0.41 11.6908 -0.328175 5.74524
410 137 3 0.41 12.4814 12.3954 5.29743
411 137 5 -0.82 11.5601 -1.31911 5.63293
412 138 3 0.41 -0.510187 5.41996 17.6695
413 138 3 0.41 0.593748 5.97532 18.6463
414 138 5 -0.82 -0.292843 6.26579 18.2597
415 139 3 0.41 9.34815 10.7545 21.9006
416 139 3 0.41 10.6583 11.6465 21.5021
417 139 5 -0.82 10.3251 10.7144 21.7292
418 140 3 0.41 5.04827 8.48828 -4.92736
419 140 3 0.41 4.53568 9.45017 -3.68251
420 140 5 -0.82 4.23016 8.72006 -4.32134
421 141 3 0.41 1.74052 -0.0235492 -20.2986
422 141 3 0.41 3.07191 0.116566 -19.2843
423 141 5 -0.82 2.75715 0.232938 -20.268
424 142 3 0.41 10.7615 5.98419 -3.54291
425 142 3 0.41 11.4912 7.31299 -3.8463
426 142 5 -0.82 10.9149 6.61024 -4.35925
427 143 3 0.41 9.12621 4.83708 15.1421
428 143 3 0.41 9.26592 5.95848 16.3657
429 143 5 -0.82 8.62721 5.38231 15.8487
430 144 3 0.41 1.24623 1.53795 -10.7953
431 144 3 0.41 0.476626 1.86824 -9.41976
432 144 5 -0.82 1.20666 1.25821 -9.84594
433 145 3 0.41 5.74688 3.88102 -4.30232
434 145 3 0.41 6.49253 5.06964 -4.89661
435 145 5 -0.82 6.64887 4.09961 -4.70008
436 146 3 0.41 9.86746 3.04839 -8.57769
437 146 3 0.41 9.40712 2.00314 -7.3967
438 146 5 -0.82 10.1311 2.22159 -8.08915
439 147 3 0.41 11.213 5.70616 -9.42987
440 147 3 0.41 10.0828 5.13275 -8.4658
441 147 5 -0.82 10.6242 4.89443 -9.26332
442 148 3 0.41 1.1045 -0.418138 20.165
443 148 3 0.41 2.01828 -0.417769 18.7768
444 148 5 -0.82 1.06106 -0.48056 19.1223
445 149 3 0.41 3.61146 4.23193 -0.211838
446 149 3 0.41 2.23721 4.92272 -0.364882
447 149 5 -0.82 2.95224 4.47287 -0.933757
448 150 3 0.41 1.1651 8.12116 -8.6245
449 150 3 0.41 -0.0821791 9.0394 -8.34343
450 150 5 -0.82 0.283896 8.32349 -8.9866
451 151 3 0.41 1.25427 5.72389 8.43474
452 151 3 0.41 1.38017 6.05089 9.90513
453 151 5 -0.82 1.11815 6.50607 9.03956
454 152 3 0.41 7.91839 12.062 4.10455
455 152 3 0.41 9.24371 -1.26128 4.56393
456 152 5 -0.82 8.78547 11.7958 4.49592
457 153 3 0.41 12.4571 5.59356 8.77707
458 153 3 0.41 11.1308 6.34823 8.18896
459 153 5 -0.82 11.6603 6.13865 9.05905
460 154 3 0.41 4.46991 2.22814 -17.4913
461 154 3 0.41 5.88835 2.92732 -17.5154
462 154 5 -0.82 5.46165 2.02262 -17.7081
463 155 3 0.41 5.83799 11.7697 15.5303
464 155 3 0.41 4.53946 12.1713 14.9721
465 155 5 -0.82 4.99763 11.3236 15.3051
466 156 3 0.41 12.3233 6.12123 -20.3805
467 156 3 0.41 12.428 4.99332 -19.1983
468 156 5 -0.82 -1.15161 5.31578 -20.0799
469 157 3 0.41 6.01968 -1.29249 18.7998
470 157 3 0.41 7.1669 -0.278993 19.1266
471 157 5 -0.82 6.77019 -0.761183 18.3482
472 158 3 0.41 12.0071 9.9417 -11.0942
473 158 3 0.41 -1.05813 11.2869 -10.8322
474 158 5 -0.82 -1.24733 10.5252 -11.4882
475 159 3 0.41 1.6467 8.3861 -12.0356
476 159 3 0.41 0.888267 7.87149 -10.7007
477 159 5 -0.82 0.864024 7.81479 -11.7586
478 160 3 0.41 8.45093 10.54 16.079
479 160 3 0.41 9.87339 10.0871 16.5386
480 160 5 -0.82 9.09387 9.77946 15.9719
481 161 3 0.41 9.8969 -0.434803 -19.2248
482 161 3 0.41 10.5661 -0.818289 -17.896
483 161 5 -0.82 10.8179 -0.663957 -18.8346
484 162 3 0.41 9.28469 8.89042 -9.872
485 162 3 0.41 10.1746 10.2129 -10.1566
486 162 5 -0.82 10.0648 9.20223 -10.4588
487 163 3 0.41 9.46592 10.0814 -14.8336
488 163 3 0.41 10.773 10.8536 -14.2718
489 163 5 -0.82 10.3543 9.91355 -14.3583
490 164 3 0.41 7.50542 10.6955 -6.28995
491 164 3 0.41 6.94544 9.12566 -6.21149
492 164 5 -0.82 6.66956 10.0917 -6.46073
493 165 3 0.41 11.0005 7.48802 21.7585
494 165 3 0.41 11.6954 6.51386 22.8369
495 165 5 -0.82 11.2827 6.50961 21.9505
496 166 3 0.41 11.3476 2.914 1.08685
497 166 3 0.41 11.6028 4.16323 0.270076
498 166 5 -0.82 10.8952 3.80848 0.916927
499 167 3 0.41 2.7777 5.02454 -12.6407
500 167 3 0.41 1.47322 5.01393 -11.5415
501 167 5 -0.82 2.39201 5.48628 -11.7282
502 168 3 0.41 0.404005 -1.20031 -9.68693
503 168 3 0.41 -0.188197 11.4646 -8.93287
504 168 5 -0.82 -0.393607 12.178 -9.60649
505 169 3 0.41 0.967524 5.53732 1.4996
506 169 3 0.41 1.7661 6.8413 1.81824
507 169 5 -0.82 1.30686 6.34933 1.03063
508 170 3 0.41 11.2809 0.821881 7.14784
509 170 3 0.41 11.2243 2.07063 6.27248
510 170 5 -0.82 11.657 1.13897 6.27805
511 171 3 0.41 10.0608 8.21542 8.11764
512 171 3 0.41 9.61155 9.49707 8.78735
513 171 5 -0.82 10.29 8.79154 8.90186
514 172 3 0.41 12.1682 8.91672 14.5451
515 172 3 0.41 -0.948885 9.77614 13.3635
516 172 5 -0.82 12.1439 9.38992 13.6657
517 173 3 0.41 6.43756 -0.650915 10.1869
518 173 3 0.41 6.03993 -0.0680614 8.71936
519 173 5 -0.82 6.20476 0.220574 9.67798
520 174 3 0.41 11.2995 6.10108 20.4528
521 174 3 0.41 12.3481 6.18862 19.1174
522 174 5 -0.82 11.4334 5.83985 19.453
523 175 3 0.41 10.2585 4.49292 5.08073
524 175 3 0.41 11.4805 5.47638 5.32794
525 175 5 -0.82 10.5646 5.40785 4.88878
526 176 3 0.41 -1.4494 6.85061 -0.476762
527 176 3 0.41 11.341 7.442 0.458447
528 176 5 -0.82 11.6634 6.6213 -0.0794546
529 177 3 0.41 10.3493 -0.190044 11.6611
530 177 3 0.41 9.61957 0.360585 10.298
531 177 5 -0.82 9.53155 0.329171 11.3033
532 178 3 0.41 10.7103 12.4637 -10.7463
533 178 3 0.41 9.59482 -0.594468 -11.1306
534 178 5 -0.82 10.0839 -1.38921 -11.4831
535 179 3 0.41 -0.584272 10.1193 -21.3928
536 179 3 0.41 12.2641 9.06795 -21.7943
537 179 5 -0.82 -0.807708 9.3346 -21.9895
538 180 3 0.41 3.72119 8.57744 1.76207
539 180 3 0.41 4.84155 7.3916 1.8097
540 180 5 -0.82 4.58123 8.27816 2.23566
541 181 3 0.41 9.04659 1.54898 -5.0962
542 181 3 0.41 9.33317 0.44351 -3.86155
543 181 5 -0.82 8.80231 0.543131 -4.75705
544 182 3 0.41 11.4434 6.17818 -12.5166
545 182 3 0.41 11.6874 4.80928 -13.2107
546 182 5 -0.82 11.3925 5.17749 -12.3335
547 183 3 0.41 12.485 5.21115 -16.7052
548 183 3 0.41 11.3283 4.46648 -17.6232
549 183 5 -0.82 12.3327 4.59523 -17.5029
550 184 3 0.41 1.9268 6.84015 12.1648
551 184 3 0.41 2.8998 5.60817 11.7419
552 184 5 -0.82 2.57056 6.53622 11.4487
553 185 3 0.41 -0.0467385 3.97854 -13.8299
554 185 3 0.41 -1.11566 4.00079 -14.7441
555 185 5 -0.82 -0.278045 4.57151 -14.6053
556 186 3 0.41 -0.896754 6.63286 -2.66389
557 186 3 0.41 0.523489 6.38376 -2.42259
558 186 5 -0.82 -0.297013 5.86071 -2.67003
559 187 3 0.41 6.963 2.30276 -2.09519
560 187 3 0.41 7.68602 1.48221 -3.29809
561 187 5 -0.82 7.59261 1.55794 -2.32187
562 188 3 0.41 3.17255 -0.764625 -21.5811
563 188 3 0.41 4.23892 -1.22987 -22.6279
564 188 5 -0.82 3.22962 -1.27429 -22.4533
565 189 3 0.41 6.45729 9.05866 12.569
566 189 3 0.41 5.23038 9.9472 12.1812
567 189 5 -0.82 5.71655 9.11213 11.9008
568 190 3 0.41 4.0616 9.96172 14.9058
569 190 3 0.41 3.7184 8.44558 14.2562
570 190 5 -0.82 3.29253 9.32776 14.5916
571 191 3 0.41 4.50051 4.32919 18.4912
572 191 3 0.41 4.43455 5.54852 17.2992
573 191 5 -0.82 4.96302 5.21666 18.1697
574 192 3 0.41 6.85755 10.2216 20.3459
575 192 3 0.41 7.20111 10.0141 18.8232
576 192 5 -0.82 7.52693 10.4653 19.643
577 193 3 0.41 3.1806 -0.0665169 17.774
578 193 3 0.41 3.72929 1.40153 18.3631
579 193 5 -0.82 3.42625 0.454315 18.6126
580 194 3 0.41 0.848458 10.3474 14.9436
581 194 3 0.41 2.06031 9.61098 15.7062
582 194 5 -0.82 1.20488 10.1197 15.881
583 195 3 0.41 5.27977 4.29142 14.6352
584 195 3 0.41 5.69155 3.70327 16.0277
585 195 5 -0.82 4.86943 3.95445 15.4934
586 196 3 0.41 9.24621 8.81049 -21.6706
587 196 3 0.41 8.32174 9.51804 -20.5221
588 196 5 -0.82 8.67749 9.6629 -21.4723
589 197 3 0.41 10.8466 11.1072 5.81713
590 197 3 0.41 11.1673 9.5905 6.16716
591 197 5 -0.82 10.3966 10.2807 6.2759
592 198 3 0.41 11.3044 1.43744 -10.8029
593 198 3 0.41 11.878 2.52818 -11.7866
594 198 5 -0.82 10.9611 2.2393 -11.3845
595 199 3 0.41 2.70838 9.90897 -6.65393
596 199 3 0.41 3.11132 10.2311 -5.1187
597 199 5 -0.82 2.6592 10.6433 -5.95913
598 200 3 0.41 4.51352 8.56373 8.65624
599 200 3 0.41 4.63529 10.1012 8.37712
600 200 5 -0.82 4.60082 9.20017 7.90831
601 201 3 0.41 8.65692 2.32368 14.2984
602 201 3 0.41 7.72651 2.24836 15.6694
603 201 5 -0.82 8.0302 1.72535 14.8811
604 202 3 0.41 5.13587 5.17624 -21.9336
605 202 3 0.41 6.36176 6.15514 -22.1471
606 202 5 -0.82 6.16328 5.18242 -22.0849
607 203 3 0.41 1.60143 3.61375 17.5696
608 203 3 0.41 2.34559 4.98896 17.1126
609 203 5 -0.82 1.79815 4.59282 17.8125
610 204 3 0.41 4.42436 7.27945 -12.6374
611 204 3 0.41 5.68846 7.79717 -11.8309
612 204 5 -0.82 5.35216 7.00375 -12.2957
613 205 3 0.41 10.4999 0.564605 -13.3644
614 205 3 0.41 9.84947 2.13355 -13.4034
615 205 5 -0.82 9.74018 1.16958 -13.6825
616 206 3 0.41 4.46233 4.19456 5.82841
617 206 3 0.41 3.13011 3.20625 5.57269
618 206 5 -0.82 3.97517 3.33257 6.06105
619 207 3 0.41 1.95278 6.67469 5.32013
620 207 3 0.41 2.30793 6.80052 6.83079
621 207 5 -0.82 1.54964 6.45527 6.23461
622 208 3 0.41 1.92381 -0.947568 -0.972538
623 208 3 0.41 3.2459 12.471 -0.241976
624 208 5 -0.82 2.23195 12.307 -0.425918
625 209 3 0.41 6.9092 1.25563 -17.4746
626 209 3 0.41 7.96347 0.0558627 -17.3113
627 209 5 -0.82 7.65431 0.890132 -16.8539
628 210 3 0.41 -0.484757 9.84441 10.4509
629 210 3 0.41 -0.737155 8.91536 9.17911
630 210 5 -0.82 -0.89823 8.95552 10.1611
631 211 3 0.41 7.70235 3.95166 17.0277
632 211 3 0.41 7.02458 2.8378 17.922
633 211 5 -0.82 7.14946 3.10711 16.9388
634 212 3 0.41 0.987865 -0.681154 22.0523
635 212 3 0.41 2.57457 -0.334982 22.2887
636 212 5 -0.82 1.76018 -0.120996 21.7272
637 213 3 0.41 3.05523 10.0449 0.598421
638 213 3 0.41 1.71698 9.53193 1.2082
639 213 5 -0.82 2.52992 9.24331 0.76388
640 214 3 0.41 12.1515 0.263942 -3.81217
641 214 3 0.41 -0.680411 -0.525824 -4.43348
642 214 5 -0.82 -0.97701 0.400956 -4.25562
643 215 3 0.41 7.47733 8.77937 -18.254
644 215 3 0.41 8.74617 9.85822 -18.3631
645 215 5 -0.82 8.02894 9.38797 -18.9019
646 216 3 0.41 4.76348 5.553 7.78466
647 216 3 0.41 4.00022 6.25799 8.86467
648 216 5 -0.82 3.81081 5.69862 8.02529
649 217 3 0.41 8.46131 -0.927578 -20.6064
650 217 3 0.41 7.4182 0.0390325 -19.8178
651 217 5 -0.82 8.44525 -0.195394 -19.8908
652 218 3 0.41 11.8071 -0.593666 9.53956
653 218 3 0.41 12.4796 0.67614 9.31787
654 218 5 -0.82 11.532 0.3226 9.15013
655 219 3 0.41 3.13375 7.21015 -14.7965
656 219 3 0.41 2.41368 7.03791 -13.4505
657 219 5 -0.82 3.17975 7.51964 -13.8471
658 220 3 0.41 11.1793 1.30853 14.2441
659 220 3 0.41 10.8852 0.296638 15.367
660 220 5 -0.82 11.7125 0.765772 14.913
661 221 3 0.41 0.737307 6.49341 -22.0222
662 221 3 0.41 0.258176 8.0813 -22.161
663 221 5 -0.82 1.05414 7.46487 -21.9592
664 222 3 0.41 5.81876 1.6812 -22.1319
665 222 3 0.41 4.67598 2.39604 -21.3175
666 222 5 -0.82 4.78257 1.67093 -22.0329
667 223 3 0.41 4.9649 3.31953 -11.2803
668 223 3 0.41 3.60048 3.43678 -10.679
669 223 5 -0.82 4.10703 2.7911 -11.232
670 224 3 0.41 10.0144 5.61516 3.3744
671 224 3 0.41 10.4341 5.43685 1.92843
672 224 5 -0.82 9.75467 5.98531 2.4475
673 225 3 0.41 6.36232 -0.793645 4.09561
674 225 3 0.41 6.09289 -0.218842 2.6427
675 225 5 -0.82 6.75802 -0.809829 3.17311
676 226 3 0.41 10.1448 4.68962 18.7381
677 226 3 0.41 8.56796 4.65783 19.0668
678 226 5 -0.82 9.27565 4.16974 18.5352
679 227 3 0.41 8.04811 3.39369 22.0831
680 227 3 0.41 7.58466 2.31525 23.0247
681 227 5 -0.82 7.66773 2.48243 22.0265
682 228 3 0.41 3.34559 -0.340605 -11.202
683 228 3 0.41 3.49206 -1.26344 -9.86273
684 228 5 -0.82 3.91246 -1.06529 -10.7544
685 229 3 0.41 2.69653 5.56907 -21.6324
686 229 3 0.41 4.05263 5.92884 -20.7737
687 229 5 -0.82 3.63378 5.77896 -21.7411
688 230 3 0.41 4.67916 0.819858 4.83174
689 230 3 0.41 4.82509 2.10245 3.89939
690 230 5 -0.82 4.34739 1.16357 3.9336
691 231 3 0.41 2.68812 9.3774 -14.2307
692 231 3 0.41 1.21117 9.99031 -14.3477
693 231 5 -0.82 2.16103 10.1103 -14.6927
694 232 3 0.41 10.258 0.361067 0.0804578
695 232 3 0.41 9.21094 -0.816335 0.0902122
696 232 5 -0.82 9.97362 -0.4744 -0.468085
697 233 3 0.41 3.21343 11.1393 3.96435
698 233 3 0.41 2.19132 10.0112 3.84579
699 233 5 -0.82 3.03668 10.2245 4.40754
700 234 3 0.41 6.07344 4.91713 9.47737
701 234 3 0.41 5.5923 5.32171 10.9661
702 234 5 -0.82 5.80122 4.51493 10.3754
703 235 3 0.41 4.59294 2.97242 7.47899
704 235 3 0.41 3.93728 1.77746 8.23697
705 235 5 -0.82 4.69646 2.46032 8.38027
706 236 3 0.41 -1.13217 9.35013 0.870845
707 236 3 0.41 12.1986 10.6304 0.331958
708 236 5 -0.82 -0.949863 10.3523 0.853081
709 237 3 0.41 2.24133 2.85054 9.21086
710 237 3 0.41 2.94752 4.28355 9.17228
711 237 5 -0.82 2.07 3.8553 9.47845
712 238 3 0.41 -0.116561 7.41785 12.3279
713 238 3 0.41 0.89198 8.62514 12.5566
714 238 5 -0.82 0.655203 7.71201 12.9136
715 239 3 0.41 -0.945182 8.62138 -2.19489
716 239 3 0.41 11.4712 8.38009 -2.52255
717 239 5 -0.82 12.4004 8.27548 -2.87913
718 240 3 0.41 11.2156 7.5773 -16.0965
719 240 3 0.41 11.8788 7.2338 -14.7554
720 240 5 -0.82 11.4531 6.76484 -15.5275
721 241 3 0.41 11.4076 -0.407917 2.81506
722 241 3 0.41 11.1256 11.9902 2.47171
723 241 5 -0.82 11.1468 -1.07252 2.0674
724 242 3 0.41 3.7311 6.23163 -2.50034
725 242 3 0.41 4.56348 6.80803 -3.74693
726 242 5 -0.82 4.2608 5.94571 -3.31764
727 243 3 0.41 4.40964 4.19533 -19.5775
728 243 3 0.41 3.78813 2.71369 -19.2897
729 243 5 -0.82 4.25123 3.27002 -19.9782
730 244 3 0.41 11.1233 3.80123 16.2388
731 244 3 0.41 -1.31525 3.85052 16.2289
732 244 5 -0.82 11.881 4.31935 16.6402
733 245 3 0.41 6.37022 -0.12455 -22.1904
734 245 3 0.41 7.10085 12.3877 -22.3052
735 245 5 -0.82 6.23405 -1.07865 -22.3926
736 246 3 0.41 8.28671 1.74778 11.9409
737 246 3 0.41 6.81139 1.58788 12.5487
738 246 5 -0.82 7.35782 2.14614 11.9049
739 247 3 0.41 4.51115 5.88306 22.3023
740 247 3 0.41 3.74434 4.54295 22.1123
741 247 5 -0.82 3.61653 5.54113 22.1241
742 248 3 0.41 -1.24681 3.51883 12.3176
743 248 3 0.41 0.360766 3.71245 12.1916
744 248 5 -0.82 -0.502401 4.17207 12.0434
745 249 3 0.41 -1.02526 2.6894 -17.0818
746 249 3 0.41 0.162661 1.86905 -16.2806
747 249 5 -0.82 -0.644389 1.74426 -16.8864
748 250 3 0.41 5.52828 2.16685 19.6534
749 250 3 0.41 6.81857 2.48883 20.4964
750 250 5 -0.82 6.49145 2.38864 19.5568
751 251 3 0.41 -1.34713 1.83917 20.8504
752 251 3 0.41 12.4045 0.192825 21.1359
753 251 5 -0.82 -1.0305 0.889037 20.6625