ITEM: TIMESTEP
45000
ITEM: NUMBER OF ATOMS
1360
ITEM: BOX BOUNDS pp pp pp
-1.5000000000000000e+00 1.2500000000000000e+01
-1.5000000000000000e+00 1.2500000000000000e+01
-2.7500000000000000e+01 2.7500000000000000e+01
ITEM: ATOMS id mol type q x y z
1 1 3 0.41 0.257774 1.46057 3.94131
2 1 3 0.41 -0.155895 1.86524 5.54499
3 1 5 -0.82 -0.520518 1.51033 4.6269
4 2 3 0.41 4.43771 11.5372 -6.65065
5 2 3 0.41 5.07288 10.9186 -5.32035
6 2 5 -0.82 5.22532 10.9789 -6.32991
7 3 3 0.41 10.3257 0.219845 11.6555
8 3 3 0.41 11.6753 0.0363994 10.6692
9 3 5 -0.82 10.7936 -0.390491 10.996
10 4 3 0.41 5.05378 6.11467 -13.3671
11 4 3 0.41 5.41593 7.24022 -14.4642
12 4 5 -0.82 5.79716 6.63088 -13.704
13 5 3 0.41 1.48034 6.98978 -9.44875
14 5 3 0.41 1.00566 6.0014 -10.6504
15 5 5 -0.82 1.83344 6.50131 -10.2744
16 6 3 0.41 -0.978402 5.60904 -15.8094
17 6 3 0.41 11.9171 4.46146 -16.1332
18 6 5 -0.82 12.4905 4.87842 -15.3788
19 7 3 0.41 5.94837 5.76041 -21.7865
20 7 3 0.41 4.63194 6.12148 -21.0724
21 7 5 -0.82 4.98435 5.52947 -21.8418
22 8 3 0.41 11.4352 3.87732 15.5426
23 8 3 0.41 11.0678 4.14946 14.1097
24 8 5 -0.82 11.6007 3.48845 14.652
25 9 3 0.41 11.5306 -0.673446 -12.3472
26 9 3 0.41 10.6418 -0.364997 -13.7179
27 9 5 -0.82 11.1611 -1.06474 -13.2387
28 10 3 0.41 1.29397 -0.390562 1.02694
29 10 3 0.41 1.76123 -0.238089 -0.548495
30 10 5 -0.82 1.4168 -0.926513 0.094729
31 11 3 0.41 2.44086 10.9246 -4.59162
32 11 3 0.41 1.51389 11.4972 -3.32677
33 11 5 -0.82 2.00533 11.73 -4.17595
34 12 3 0.41 10.5299 9.3551 -14.5747
35 12 3 0.41 10.4986 8.3115 -15.7719
36 12 5 -0.82 10.3689 9.32347 -15.5687
37 13 3 0.41 11.065 10.2201 13.8334
38 13 3 0.41 11.2022 11.8104 13.6368
39 13 5 -0.82 10.9977 10.9639 13.0923
40 14 3 0.41 7.41011 9.84938 -15.5142
41 14 3 0.41 8.78171 9.7022 -16.2449
42 14 5 -0.82 7.89663 10.1333 -16.3263
43 15 3 0.41 1.78572 2.16596 14.8991
44 15 3 0.41 2.08517 0.668077 14.6579
45 15 5 -0.82 1.84065 1.30062 15.4168
46 16 3 0.41 7.63454 -1.15885 20.8315
47 16 3 0.41 8.19672 -0.0234846 19.9419
48 16 5 -0.82 7.36667 -0.652671 19.9895
49 17 3 0.41 7.99668 4.4356 20.2322
50 17 3 0.41 7.03415 4.12619 19.0017
51 17 5 -0.82 7.98978 3.95717 19.3313
52 18 3 0.41 -1.07592 9.14605 -16.2895
53 18 3 0.41 11.7495 9.43869 -17.2772
54 18 5 -0.82 -1.26391 9.60859 -17.1932
55 19 3 0.41 4.99156 7.82117 5.91199
56 19 3 0.41 5.35865 9.22846 5.38143
57 19 5 -0.82 5.84228 8.35871 5.72402
58 20 3 0.41 9.7924 5.51478 -2.88967
59 20 3 0.41 8.23131 5.77732 -3.23476
60 20 5 -0.82 9.05311 5.29186 -3.57983
61 21 3 0.41 10.4068 4.74241 23.0762
62 21 3 0.41 10.0923 6.04156 22.0859
63 21 5 -0.82 10.089 5.00996 22.1426
64 22 3 0.41 7.31484 2.93826 -13.3235
65 22 3 0.41 6.34039 3.42437 -14.4146
66 22 5 -0.82 7.31687 3.09374 -14.3059
67 23 3 0.41 8.1113 1.74145 -22.3451
68 23 3 0.41 7.9568 0.925198 -20.9958
69 23 5 -0.82 8.32822 0.856014 -21.9564
70 24 3 0.41 1.72242 8.08524 -12.2554
71 24 3 0.41 0.241981 7.82985 -12.331
72 24 5 -0.82 1.02783 7.92593 -12.9557
73 25 3 0.41 2.81895 3.31226 -16.3256
74 25 3 0.41 1.76274 2.50515 -15.6208
75 25 5 -0.82 1.91093 3.49348 -15.8805
76 26 3 0.41 10.509 10.7921 -9.11332
77 26 3 0.41 11.3718 10.8114 -10.4636
78 26 5 -0.82 10.4367 10.6577 -10.1003
79 27 3 0.41 4.30551 11.2941 -14.4022
80 27 3 0.41 3.18022 11.1257 -15.4389
81 27 5 -0.82 3.80519 11.8566 -15.0681
82 28 3 0.41 -0.626123 5.7921 -8.23101
83 28 3 0.41 0.192378 4.32145 -8.13822
84 28 5 -0.82 -0.51959 4.88441 -8.69015
85 29 3 0.41 0.211993 -0.767142 18.8326
86 29 3 0.41 -1.25432 -0.850766 19.4234
87 29 5 -0.82 -0.241116 -0.918438 19.7442
88 30 3 0.41 7.00061 1.83095 8.17182
89 30 3 0.41 6.26073 1.28752 6.77883
90 30 5 -0.82 6.12683 1.42866 7.7702
91 31 3 0.41 12.489 10.8861 -18.4859
92 31 3 0.41 -1.06734 12.0693 -19.3857
93 31 5 -0.82 12.2732 11.2712 -19.3518
94 32 3 0.41 1.65392 5.15758 -21.9201
95 32 3 0.41 3.1926 4.53051 -21.8712
96 32 5 -0.82 2.24404 4.30687 -22.075
97 33 3 0.41 10.9404 1.77941 -4.64433
98 33 3 0.41 11.1515 1.4537 -3.11359
99 33 5 -0.82 11.1342 1.01398 -4.04633
100 34 3 0.41 8.73545 9.69107 1.89193
101 34 3 0.41 8.71872 10.3812 0.387149
102 34 5 -0.82 9.21912 9.70631 0.958786
103 35 3 0.41 9.63938 7.33906 11.1036
104 35 3 0.41 9.13269 7.84889 12.3902
105 35 5 -0.82 9.47315 8.23857 11.5125
106 36 3 0.41 8.6672 8.23692 0.589557
107 36 3 0.41 8.2375 7.4968 -0.75416
108 36 5 -0.82 8.41488 7.2808 0.251553
109 37 3 0.41 -0.662853 10.6063 22.2572
110 37 3 0.41 0.163173 9.24881 22.7047
111 37 5 -0.82 -0.439443 9.66823 21.9542
112 38 3 0.41 4.53198 4.88485 0.905774
113 38 3 0.41 4.51355 4.91682 2.46486
114 38 5 -0.82 4.93318 5.38774 1.66217
115 39 3 0.41 11.3474 6.31427 -13.5806
116 39 3 0.41 10.1753 7.32487 -13.6805
117 39 5 -0.82 11.1732 7.29661 -13.688
118 40 3 0.41 8.73278 8.72432 -18.8534
119 40 3 0.41 9.12879 7.20796 -19.2258
120 40 5 -0.82 8.31369 7.79111 -18.9053
121 41 3 0.41 4.43665 1.5742 -16.488
122 41 3 0.41 5.3517 2.7629 -16.7248
123 41 5 -0.82 4.44747 2.53725 -16.4913
124 42 3 0.41 -0.803755 -0.764955 5.57293
125 42 3 0.41 0.0681595 12.3772 6.72163
126 42 5 -0.82 0.0827523 -1.30133 5.74
127 43 3 0.41 -0.659663 3.69163 17.2833
128 43 3 0.41 0.239881 3.38105 15.9542
129 43 5 -0.82 -0.0677712 2.9871 16.8448
130 44 3 0.41 4.82483 7.61824 -19.2103
131 44 3 0.41 6.34427 7.44583 -19.0098
132 44 5 -0.82 5.50795 7.34545 -18.5227
133 45 3 0.41 8.6383 8.24751 3.08943
134 45 3 0.41 7.11495 7.97409 3.54679
135 45 5 -0.82 7.73435 8.77076 3.28291
136 46 3 0.41 10.4255 3.39683 10.8471
137 46 3 0.41 11.2238 2.26715 10.0372
138 46 5 -0.82 11.1438 2.65529 10.9979
139 47 3 0.41 6.90693 2.7843 1.26458
140 47 3 0.41 5.49806 2.65803 2.08221
141 47 5 -0.82 6.03486 2.24204 1.33272
142 48 3 0.41 1.15186 1.93234 18.5638
143 48 3 0.41 1.40821 2.93013 19.6426
144 48 5 -0.82 0.965513 2.06171 19.531
145 49 3 0.41 8.10586 -0.612048 -8.60064
146 49 3 0.41 8.56675 11.9928 -7.8824
147 49 5 -0.82 7.78635 12.4889 -8.35364
148 50 3 0.41 11.9154 -1.45138 22.5181
149 50 3 0.41 -0.898258 -1.2701 21.4516
150 50 5 -0.82 -1.24243 12.0861 22.2031
151 51 3 0.41 12.4751 12.0668 11.3876
152 51 3 0.41 -0.558722 10.8112 11.3048
153 51 5 -0.82 -1.09108 11.4152 10.7444
154 52 3 0.41 -0.214196 2.96415 -11.9136
155 52 3 0.41 1.33015 3.06651 -12.1218
156 52 5 -0.82 0.543496 2.5718 -12.507
157 53 3 0.41 -0.758292 6.55264 6.99681
158 53 3 0.41 -0.648654 4.87227 6.87006
159 53 5 -0.82 -0.206923 5.7163 7.24653
160 54 3 0.41 5.15895 -0.52583 13.0163
161 54 3 0.41 4.85766 1.08191 12.7774
162 54 5 -0.82 5.40883 0.28904 12.3933
163 55 3 0.41 10.7628 9.39275 16.0969
164 55 3 0.41 11.3846 8.62225 15.0236
165 55 5 -0.82 11.3021 9.574 15.2897
166 56 3 0.41 0.649549 6.43943 10.1293
167 56 3 0.41 1.22037 6.30363 8.6877
168 56 5 -0.82 0.943738 7.01286 9.35755
169 57 3 0.41 6.84008 10.1643 -17.5257
170 57 3 0.41 6.14296 10.885 -18.7061
171 57 5 -0.82 5.90066 10.2814 -17.9949
172 58 3 0.41 4.04534 10.0206 -19.8699
173 58 3 0.41 3.36834 9.61736 -21.3667
174 58 5 -0.82 4.20462 10.0368 -20.8769
175 59 3 0.41 12.4517 11.3463 7.99696
176 59 3 0.41 11.2671 11.4648 9.11252
177 59 5 -0.82 11.4132 11.4441 8.08803
178 60 3 0.41 -1.04199 9.71368 2.24533
179 60 3 0.41 0.482227 9.75197 2.71263
180 60 5 -0.82 -0.213459 9.11064 2.31769
181 61 3 0.41 -0.502261 0.911578 15.8103
182 61 3 0.41 -1.41541 1.80929 14.693
183 61 5 -0.82 -1.068 0.894473 14.9644
184 62 3 0.41 1.85565 7.97904 4.23118
185 62 3 0.41 0.826843 9.1499 4.83973
186 62 5 -0.82 1.73876 8.96265 4.34955
187 63 3 0.41 0.735323 5.55227 16.6252
188 63 3 0.41 2.22001 4.80569 16.8978
189 63 5 -0.82 1.71836 5.6823 16.9083
190 64 3 0.41 5.28698 -0.556107 5.17555
191 64 3 0.41 6.39469 -0.712565 6.35399
192 64 5 -0.82 5.55109 -1.15789 5.97381
193 65 3 0.41 2.42073 3.60407 -2.7179
194 65 3 0.41 3.08446 3.28232 -4.08692
195 65 5 -0.82 2.153 3.26396 -3.63017
196 66 3 0.41 -1.33786 2.55619 3.58829
197 66 3 0.41 11.2496 3.08653 3.3899
198 66 5 -0.82 12.1732 3.39718 3.22014
199 67 3 0.41 5.23565 0.804911 9.18718
200 67 3 0.41 4.78078 0.219468 10.6952
201 67 5 -0.82 4.46992 0.74356 9.87774
202 68 3 0.41 4.35706 9.53848 20.0944
203 68 3 0.41 5.80231 8.93705 20.4732
204 68 5 -0.82 5.31915 9.46969 19.779
205 69 3 0.41 -0.224496 0.919962 -22.2033
206 69 3 0.41 1.26948 0.196905 -22.2757
207 69 5 -0.82 0.269315 0.0442734 -22.1971
208 70 3 0.41 9.22799 4.58774 -20.0901
209 70 3 0.41 10.4143 5.58012 -19.7103
210 70 5 -0.82 9.3771 5.53708 -19.8158
211 71 3 0.41 -0.283398 7.88227 3.31978
212 71 3 0.41 -1.01971 7.49808 4.71663
213 71 5 -0.82 -0.359875 7.15109 3.98808
214 72 3 0.41 1.2429 8.35802 15.4456
215 72 3 0.41 0.0668903 7.39749 15.0975
216 72 5 -0.82 0.37547 8.37698 14.8632
217 73 3 0.41 10.5023 -0.0623411 -10.7431
218 73 3 0.41 11.6454 -0.203935 -9.67697
219 73 5 -0.82 11.4747 0.140995 -10.6301
220 74 3 0.41 6.81902 -0.941331 -1.46018
221 74 3 0.41 5.7129 -0.438211 -0.264501
222 74 5 -0.82 6.6721 -0.355952 -0.632936
223 75 3 0.41 10.5351 0.851998 -6.74406
224 75 3 0.41 9.57596 1.68446 -5.85648
225 75 5 -0.82 9.58082 0.85037 -6.4265
226 76 3 0.41 5.0023 -0.709595 -14.7376
227 76 3 0.41 5.12223 0.59567 -14.1257
228 76 5 -0.82 5.68252 0.0621603 -14.7927
229 77 3 0.41 11.1133 11.7961 17.5246
230 77 3 0.41 11.4802 12.1743 16.0662
231 77 5 -0.82 11.8982 11.7759 16.9333
232 78 3 0.41 -1.27496 9.17059 -11.3552
233 78 3 0.41 11.9215 8.08486 -12.315
234 78 5 -0.82 -1.39543 8.19028 -11.5277
235 79 3 0.41 8.24818 11.597 4.87502
236 79 3 0.41 7.93277 10.0466 4.51166
237 79 5 -0.82 7.99933 10.6822 5.30075
238 80 3 0.41 1.57593 5.80573 -13.083
239 80 3 0.41 1.97319 4.37004 -13.8119
240 80 5 -0.82 2.31664 5.25513 -13.5043
241 81 3 0.41 -0.0519836 -1.17087 -2.79213
242 81 3 0.41 -1.1755 -0.0752711 -2.80342
243 81 5 -0.82 -0.280381 -0.24106 -3.20263
244 82 3 0.41 1.21362 7.45969 -1.92917
245 82 3 0.41 0.652833 6.63663 -0.53799
246 82 5 -0.82 0.641478 6.67503 -1.5778
247 83 3 0.41 10.6696 10.5374 2.67649
248 83 3 0.41 11.797 11.2585 3.52026
249 83 5 -0.82 11.4712 10.3448 3.25726
250 84 3 0.41 -0.527785 0.920252 1.80477
251 84 3 0.41 -0.514174 2.01392 0.595071
252 84 5 -0.82 -0.982208 1.14032 0.902927
253 85 3 0.41 6.80134 9.99569 21.8952
254 85 3 0.41 6.10522 11.5671 21.8035
255 85 5 -0.82 6.93966 10.996 21.624
256 86 3 0.41 -0.9644 7.07956 -16.8552
257 86 3 0.41 12.3093 7.01195 -18.3623
258 86 5 -0.82 -1.00129 6.62821 -17.7418
259 87 3 0.41 4.06558 0.202869 3.25972
260 87 3 0.41 5.6566 0.087772 2.99503
261 87 5 -0.82 4.98058 0.364268 3.7395
262 88 3 0.41 7.49845 11.5555 15.2145
263 88 3 0.41 7.5821 10.3771 16.3921
264 88 5 -0.82 7.44362 11.3588 16.1988
265 89 3 0.41 11.0916 4.70842 -22.0854
266 89 3 0.41 10.5236 3.50828 -21.1146
267 89 5 -0.82 10.7919 3.72344 -22.0656
268 90 3 0.41 9.43299 1.85042 -12.8742
269 90 3 0.41 8.52688 2.22317 -11.4966
270 90 5 -0.82 9.432 2.36919 -11.9694
271 91 3 0.41 8.64401 -0.108274 7.24662
272 91 3 0.41 9.46292 -0.238194 8.66546
273 91 5 -0.82 8.69875 -0.668257 8.1287
274 92 3 0.41 5.83608 6.43834 4.22846
275 92 3 0.41 5.82293 6.13915 2.64394
276 92 5 -0.82 6.4234 6.39785 3.44934
277 93 3 0.41 6.22657 8.14775 9.64508
278 93 3 0.41 7.11042 7.39253 8.55522
279 93 5 -0.82 7.19327 8.0893 9.29165
280 94 3 0.41 11.5779 3.62983 6.41023
281 94 3 0.41 12.1119 4.08705 4.88463
282 94 5 -0.82 12.0295 4.35909 5.87446
283 95 3 0.41 7.67847 3.85848 11.0311
284 95 3 0.41 7.22657 2.26758 11.1584
285 95 5 -0.82 6.9874 3.21757 11.4525
286 96 3 0.41 -1.04424 0.584087 9.21221
287 96 3 0.41 0.524314 0.462084 9.61779
288 96 5 -0.82 -0.403553 0.641699 9.99953
289 97 3 0.41 8.59319 3.60441 17.1324
290 97 3 0.41 8.00158 4.76861 16.3333
291 97 5 -0.82 8.89274 4.3454 16.5303
292 98 3 0.41 9.0119 10.8969 -18.6143
293 98 3 0.41 9.26977 11.1801 -20.1512
294 98 5 -0.82 9.20761 10.4269 -19.4466
295 99 3 0.41 11.684 11.9602 -1.71424
296 99 3 0.41 12.0241 10.4264 -1.32426
297 99 5 -0.82 11.4146 10.9641 -1.9053
298 100 3 0.41 2.85481 12.0023 1.0981
299 100 3 0.41 2.46074 11.2944 2.53466
300 100 5 -0.82 3.23329 11.4797 1.87059
301 101 3 0.41 8.93646 6.37778 -5.20392
302 101 3 0.41 7.72189 7.44866 -5.13152
303 101 5 -0.82 8.09728 6.65751 -5.70648
304 102 3 0.41 10.3586 12.0355 -21.5237
305 102 3 0.41 9.19307 -0.844248 -21.2895
306 102 5 -0.82 9.35479 12.138 -21.5103
307 103 3 0.41 7.57256 3.09561 13.0145
308 103 3 0.41 7.33193 3.2707 14.6876
309 103 5 -0.82 7.97142 3.00921 13.9828
310 104 3 0.41 -0.499679 5.02348 -10.3909
311 104 3 0.41 -1.14869 5.13998 -11.8455
312 104 5 -0.82 -0.268479 5.2578 -11.3851
313 105 3 0.41 9.5427 -0.91038 4.69845
314 105 3 0.41 9.04722 -0.674202 3.28851
315 105 5 -0.82 8.97567 -1.34692 4.04282
316 106 3 0.41 3.57196 8.89722 -5.72891
317 106 3 0.41 2.58126 9.20592 -4.43939
318 106 5 -0.82 2.71267 9.36631 -5.44117
319 107 3 0.41 1.48268 9.79884 -6.40364
320 107 3 0.41 0.588463 11.3024 -6.6116
321 107 5 -0.82 0.911087 10.4173 -7.02484
322 108 3 0.41 0.978883 8.4455 -19.3555
323 108 3 0.41 -0.465769 9.07836 -18.9875
324 108 5 -0.82 0.375863 9.21476 -19.5289
325 109 3 0.41 7.81961 11.2875 -22.0105
326 109 3 0.41 6.28258 11.1252 -22.2309
327 109 5 -0.82 7.10552 10.5565 -22.2189
328 110 3 0.41 10.1057 2.48405 -1.8289
329 110 3 0.41 11.3721 2.72984 -0.89864
330 110 5 -0.82 11.1433 2.41672 -1.83066
331 111 3 0.41 10.1251 4.6342 -13.2001
332 111 3 0.41 11.5801 4.68952 -13.8723
333 111 5 -0.82 11.1105 4.62501 -12.9782
334 112 3 0.41 -0.551606 2.65417 -20.772
335 112 3 0.41 -0.107701 3.72525 -21.8293
336 112 5 -0.82 -0.453446 2.81685 -21.7763
337 113 3 0.41 5.08491 9.54947 15.2542
338 113 3 0.41 5.86032 10.5144 16.3058
339 113 5 -0.82 4.92922 10.1109 16.1176
340 114 3 0.41 3.48105 8.74332 -10.9273
341 114 3 0.41 3.28981 7.18407 -11.2873
342 114 5 -0.82 3.66624 8.04888 -11.6562
343 115 3 0.41 4.53075 12.402 9.14799
344 115 3 0.41 3.12298 11.7079 9.46944
345 115 5 -0.82 3.75583 11.9197 8.71274
346 116 3 0.41 3.54048 6.38336 20.4285
347 116 3 0.41 3.68865 7.89913 21.0347
348 116 5 -0.82 4.03456 6.92679 21.1345
349 117 3 0.41 8.4301 -0.344474 -14.4847
350 117 3 0.41 7.05064 -0.0490904 -13.737
351 117 5 -0.82 8.04329 -0.256174 -13.565
352 118 3 0.41 4.56052 7.90116 -2.62919
353 118 3 0.41 6.02354 7.84024 -3.40418
354 118 5 -0.82 5.01451 7.88308 -3.56096
355 119 3 0.41 4.7607 4.09346 -6.60866
356 119 3 0.41 3.54082 3.64642 -7.65461
357 119 5 -0.82 4.35467 3.2916 -7.10061
358 120 3 0.41 2.18863 -0.293434 10.2932
359 120 3 0.41 1.7184 -0.794322 11.7665
360 120 5 -0.82 2.11845 -1.10601 10.8632
361 121 3 0.41 12.309 5.18708 -18.6679
362 121 3 0.41 -1.32588 5.42465 -20.2244
363 121 5 -0.82 11.9209 5.12537 -19.5797
364 122 3 0.41 0.458188 5.48462 12.8919
365 122 3 0.41 -0.732755 5.2938 11.9015
366 122 5 -0.82 -0.55274 5.53489 12.89
367 123 3 0.41 9.78861 -0.109785 1.03721
368 123 3 0.41 10.0103 12.3705 0.804334
369 123 5 -0.82 10.3481 -0.867947 1.37378
370 124 3 0.41 -1.17048 1.83909 -7.94637
371 124 3 0.41 12.4026 1.974 -6.4287
372 124 5 -0.82 12.0758 1.65999 -7.323
373 125 3 0.41 0.95545 12.432 -8.51143
374 125 3 0.41 0.506799 -0.41013 -9.43117
375 125 5 -0.82 0.461994 -1.45165 -9.39104
376 126 3 0.41 1.1353 0.442108 -14.5954
377 126 3 0.41 2.16636 1.46016 -13.9128
378 126 5 -0.82 1.80312 1.16151 -14.7927
379 127 3 0.41 3.57282 9.0316 16.1404
380 127 3 0.41 2.30594 8.5068 16.9659
381 127 5 -0.82 2.55396 8.88214 16.0646
382 128 3 0.41 8.25605 4.33388 5.89369
383 128 3 0.41 7.35594 5.10091 4.82012
384 128 5 -0.82 7.65213 4.1736 5.087
385 129 3 0.41 1.55153 6.93397 1.49624
386 129 3 0.41 1.89139 5.51041 0.866376
387 129 5 -0.82 1.0946 6.10712 1.09195
388 130 3 0.41 1.41502 4.17206 -5.22483
389 130 3 0.41 1.80646 4.43635 -6.79824
390 130 5 -0.82 1.04605 4.42121 -6.13235
391 131 3 0.41 0.271242 0.650585 -11.9828
392 131 3 0.41 -0.724765 -0.552794 -11.7144
393 131 5 -0.82 0.0359845 -0.267701 -12.3105
394 132 3 0.41 9.48413 10.1771 -3.65862
395 132 3 0.41 10.9917 10.8018 -3.47744
396 132 5 -0.82 10.2113 10.731 -4.1471
397 133 3 0.41 5.26552 1.88315 4.55401
398 133 3 0.41 6.43974 2.92072 4.82271
399 133 5 -0.82 5.5671 2.55591 5.21441
400 134 3 0.41 -0.705875 3.99428 -3.36418
401 134 3 0.41 -1.39862 2.94485 -2.4428
402 134 5 -0.82 -0.538064 3.11829 -2.89843
403 135 3 0.41 10.4083 0.743816 -22.0477
404 135 3 0.41 11.7133 1.73976 -22.0483
405 135 5 -0.82 11.4028 0.764927 -22.1421
406 136 3 0.41 0.835614 1.85755 12.2968
407 136 3 0.41 2.1221 0.848638 12.6296
408 136 5 -0.82 1.8276 1.61797 12.0428
409 137 3 0.41 4.86709 10.8745 1.98438
410 137 3 0.41 5.95503 9.8979 2.47002
411 137 5 -0.82 5.85453 10.6592 1.82381
412 138 3 0.41 12.2478 8.2375 17.6776
413 138 3 0.41 -0.476657 8.29933 18.5023
414 138 5 -0.82 -0.888245 8.80922 17.7125
415 139 3 0.41 10.2972 10.6133 22.6866
416 139 3 0.41 10.5848 10.1732 21.0844
417 139 5 -0.82 10.0067 10.0221 21.9301
418 140 3 0.41 3.10766 0.834517 0.910894
419 140 3 0.41 4.633 1.26981 0.864832
420 140 5 -0.82 3.94454 0.721661 0.34229
421 141 3 0.41 6.76247 -0.884531 -18.8764
422 141 3 0.41 6.416 -1.35359 -20.3256
423 141 5 -0.82 6.89594 12.3378 -19.4986
424 142 3 0.41 -0.914689 10.0975 -7.10778
425 142 3 0.41 12.0658 9.21206 -6.15445
426 142 5 -0.82 12.2227 10.1 -6.63136
427 143 3 0.41 2.12381 7.08845 12.0875
428 143 3 0.41 3.00342 8.30362 12.4706
429 143 5 -0.82 2.18416 8.08145 11.9912
430 144 3 0.41 4.19979 2.34561 -13.0561
431 144 3 0.41 3.91467 1.18385 -11.9405
432 144 5 -0.82 3.95524 1.35837 -12.964
433 145 3 0.41 -1.25314 12.3936 -8.3596
434 145 3 0.41 11.5727 -1.15078 -7.38459
435 145 5 -0.82 11.9247 -1.03715 -8.3473
436 146 3 0.41 5.3413 3.05831 -8.33521
437 146 3 0.41 6.85438 2.95627 -8.75764
438 146 5 -0.82 5.92784 3.02656 -9.18777
439 147 3 0.41 9.6292 3.53046 -8.64568
440 147 3 0.41 11.0655 2.73589 -8.53671
441 147 5 -0.82 10.3216 3.00562 -9.20181
442 148 3 0.41 3.54269 0.219116 19.1841
443 148 3 0.41 3.70185 -1.0754 20.1854
444 148 5 -0.82 3.08335 -0.298116 19.8703
445 149 3 0.41 12.359 4.87775 -4.57393
446 149 3 0.41 -0.478331 4.57064 -5.83307
447 149 5 -0.82 -1.4597 4.43801 -5.46982
448 150 3 0.41 0.207562 10.5784 -11.2797
449 150 3 0.41 -0.521154 11.3175 -10.1763
450 150 5 -0.82 -0.774384 10.7496 -11.0172
451 151 3 0.41 2.77893 5.52314 11.3778
452 151 3 0.41 1.68103 4.27936 10.985
453 151 5 -0.82 1.86398 5.09968 11.6245
454 152 3 0.41 3.94469 10.2952 4.01651
455 152 3 0.41 3.08042 10.0427 5.26319
456 152 5 -0.82 4.01616 10.3273 5.02722
457 153 3 0.41 10.6033 8.29146 7.90946
458 153 3 0.41 10.4379 7.41644 9.12227
459 153 5 -0.82 10.1413 8.32142 8.79717
460 154 3 0.41 9.08885 2.29826 -19.5959
461 154 3 0.41 10.3547 1.72828 -19.174
462 154 5 -0.82 10.0337 2.60164 -19.6148
463 155 3 0.41 6.51742 1.01917 19.6745
464 155 3 0.41 6.96463 2.44561 19.4909
465 155 5 -0.82 6.21115 1.83372 19.1206
466 156 3 0.41 1.31638 4.86562 -18.343
467 156 3 0.41 0.750618 4.04548 -17.2391
468 156 5 -0.82 0.676652 4.11369 -18.2435
469 157 3 0.41 1.03524 0.31024 16.4659
470 157 3 0.41 0.690913 -1.10137 17.1558
471 157 5 -0.82 0.531759 -0.135961 17.2847
472 158 3 0.41 5.1395 12.3665 -10.2919
473 158 3 0.41 3.8619 11.9911 -11.0251
474 158 5 -0.82 4.32054 11.7726 -10.1666
475 159 3 0.41 0.435308 9.71456 -13.5149
476 159 3 0.41 -1.01842 10.2563 -13.2768
477 159 5 -0.82 -0.228619 10.3198 -13.9089
478 160 3 0.41 11.3166 1.49067 17.8669
479 160 3 0.41 11.7695 0.973922 16.4331
480 160 5 -0.82 10.9099 1.1373 17.0212
481 161 3 0.41 8.12266 2.57884 -15.4936
482 161 3 0.41 8.43441 1.48452 -16.5959
483 161 5 -0.82 8.69874 2.40986 -16.3554
484 162 3 0.41 10.934 12.3619 -4.86629
485 162 3 0.41 11.4856 -0.188559 -4.93799
486 162 5 -0.82 11.5411 -1.09793 -5.42879
487 163 3 0.41 1.74841 -0.900524 -12.0724
488 163 3 0.41 2.5433 12.2944 -13.2288
489 163 5 -0.82 2.64934 -1.2866 -12.3015
490 164 3 0.41 5.1596 9.61529 -3.65256
491 164 3 0.41 4.25009 10.7738 -3.04243
492 164 5 -0.82 4.89187 10.5609 -3.74794
493 165 3 0.41 1.77236 11.9255 20.621
494 165 3 0.41 0.87988 10.7284 20.9221
495 165 5 -0.82 1.64352 10.9425 20.3104
496 166 3 0.41 10.7534 1.13523 4.77309
497 166 3 0.41 9.48643 1.4133 3.7904
498 166 5 -0.82 10.465 1.55973 3.9303
499 167 3 0.41 3.39714 8.78652 -13.4592
500 167 3 0.41 3.1572 8.77039 -15.0393
501 167 5 -0.82 3.62171 9.24125 -14.3193
502 168 3 0.41 3.58606 11.9761 -8.4244
503 168 3 0.41 2.25471 11.3199 -7.66642
504 168 5 -0.82 2.85994 12.1134 -7.70701
505 169 3 0.41 10.836 10.4857 6.75984
506 169 3 0.41 9.77706 10.2248 5.642
507 169 5 -0.82 10.5774 9.77134 6.08432
508 170 3 0.41 9.14385 2.63358 8.05776
509 170 3 0.41 8.25544 3.86021 8.56452
510 170 5 -0.82 8.17788 2.93312 8.12677
511 171 3 0.41 8.76216 11.518 8.24327
512 171 3 0.41 8.42057 10.5548 6.98817
513 171 5 -0.82 8.37818 10.5666 8.01217
514 172 3 0.41 10.4308 -1.2046 19.1657
515 172 3 0.41 11.4289 11.9431 19.9883
516 172 5 -0.82 11.1565 -1.03121 19.8577
517 173 3 0.41 4.23596 1.76907 6.50799
518 173 3 0.41 2.83216 2.04583 5.68894
519 173 5 -0.82 3.3321 1.4106 6.29268
520 174 3 0.41 9.36554 9.67603 18.286
521 174 3 0.41 9.73553 8.39918 17.3208
522 174 5 -0.82 10.0982 9.23405 17.7359
523 175 3 0.41 1.0803 2.27666 10.1874
524 175 3 0.41 -0.0313631 3.42317 9.98318
525 175 5 -0.82 0.956931 3.26686 9.8131
526 176 3 0.41 10.7118 3.96445 -5.88825
527 176 3 0.41 9.64872 4.03983 -4.62754
528 176 5 -0.82 9.91919 3.47746 -5.45049
529 177 3 0.41 11.6728 -0.356519 14.7514
530 177 3 0.41 10.2219 -0.197313 14.35
531 177 5 -0.82 10.8197 -0.890823 14.81
532 178 3 0.41 -0.162693 -0.788247 -13.837
533 178 3 0.41 0.190763 11.7611 -14.1874
534 178 5 -0.82 0.20539 -1.31125 -14.6022
535 179 3 0.41 5.65962 0.065246 -22.0683
536 179 3 0.41 4.86082 -1.35744 -21.8596
537 179 5 -0.82 5.74501 -0.936645 -22.1874
538 180 3 0.41 -0.469647 10.1755 0.192185
539 180 3 0.41 -1.20104 8.89455 -0.184134
540 180 5 -0.82 -0.567313 9.56617 -0.629518
541 181 3 0.41 7.79499 1.57626 -6.5059
542 181 3 0.41 7.27612 3.08338 -6.29733
543 181 5 -0.82 6.94638 2.13514 -6.56665
544 182 3 0.41 10.4883 6.51908 -10.5264
545 182 3 0.41 10.6251 5.60206 -9.29099
546 182 5 -0.82 10.7798 5.57422 -10.2979
547 183 3 0.41 4.69545 4.54019 -17.4097
548 183 3 0.41 4.63612 6.12972 -17.8387
549 183 5 -0.82 4.10561 5.32334 -17.5108
550 184 3 0.41 2.22544 10.9069 15.1857
551 184 3 0.41 2.90124 9.82708 14.3513
552 184 5 -0.82 2.69686 10.8216 14.2695
553 185 3 0.41 3.36459 6.20266 -16.2557
554 185 3 0.41 2.52984 6.2943 -14.7757
555 185 5 -0.82 2.82696 6.78323 -15.6079
556 186 3 0.41 11.4157 5.25779 -6.9356
557 186 3 0.41 10.5311 6.60933 -7.0227
558 186 5 -0.82 10.5882 5.65351 -7.37473
559 187 3 0.41 8.6758 1.94963 -0.369014
560 187 3 0.41 8.08277 0.550353 -0.309215
561 187 5 -0.82 8.69434 1.12431 0.241134
562 188 3 0.41 5.90221 1.43103 -21.1428
563 188 3 0.41 6.0114 2.77282 -22.0164
564 188 5 -0.82 5.59813 1.83816 -22.0385
565 189 3 0.41 3.14555 11.3245 11.9523
566 189 3 0.41 4.47437 10.4096 12.2123
567 189 5 -0.82 3.85787 10.7587 11.5049
568 190 3 0.41 5.34874 -1.10854 15.0193
569 190 3 0.41 4.1597 11.8417 14.5003
570 190 5 -0.82 4.77056 -1.38894 14.2475
571 191 3 0.41 10.5636 4.43592 16.8699
572 191 3 0.41 11.165 5.50273 17.9543
573 191 5 -0.82 11.4711 4.84756 17.244
574 192 3 0.41 10.3367 1.44092 19.557
575 192 3 0.41 9.10396 1.7398 20.4614
576 192 5 -0.82 9.3255 1.3371 19.5793
577 193 3 0.41 7.52667 1.9516 22.1047
578 193 3 0.41 5.97634 2.43283 21.7673
579 193 5 -0.82 6.55469 1.61752 21.8811
580 194 3 0.41 -0.138389 12.1966 13.8949
581 194 3 0.41 -0.64875 10.6556 13.7808
582 194 5 -0.82 -0.378763 11.425 14.4754
583 195 3 0.41 12.2402 6.91693 13.5731
584 195 3 0.41 10.6214 6.6095 13.7543
585 195 5 -0.82 11.4198 7.14578 14.117
586 196 3 0.41 12.0154 -0.907168 -22.2867
587 196 3 0.41 -0.912152 12.0432 -21.7956
588 196 5 -0.82 12.175 12.0785 -22.2343
589 197 3 0.41 5.99049 9.68498 6.81994
590 197 3 0.41 6.53949 10.6643 7.93506
591 197 5 -0.82 5.64159 10.2974 7.56601
592 198 3 0.41 12.297 1.73588 -10.7944
593 198 3 0.41 -0.552416 2.6009 -10.1484
594 198 5 -0.82 -1.37914 2.71878 -10.7589
595 199 3 0.41 4.60551 1.52618 -4.20174
596 199 3 0.41 5.29653 2.98955 -3.75494
597 199 5 -0.82 4.60232 2.53002 -4.38047
598 200 3 0.41 2.61564 8.47408 7.40346
599 200 3 0.41 3.9538 8.26795 8.36266
600 200 5 -0.82 3.46239 7.91308 7.51143
601 201 3 0.41 7.18802 8.08903 18.0744
602 201 3 0.41 7.74657 8.20525 16.4914
603 201 5 -0.82 7.15955 8.60405 17.2056
604 202 3 0.41 7.11934 6.99988 -22.0601
605 202 3 0.41 8.45226 6.50289 -21.2532
606 202 5 -0.82 7.7237 6.18648 -21.8925
607 203 3 0.41 3.01182 2.91844 16.526
608 203 3 0.41 3.53267 2.88517 17.9521
609 203 5 -0.82 3.22189 3.54877 17.2603
610 204 3 0.41 6.17693 7.56717 -11.7727
611 204 3 0.41 6.57241 8.38415 -10.4917
612 204 5 -0.82 6.99058 7.92983 -11.323
613 205 3 0.41 10.6558 11.2936 -13.0538
614 205 3 0.41 10.5692 10.1467 -11.9211
615 205 5 -0.82 10.7423 10.3206 -12.8743
616 206 3 0.41 2.12963 5.34649 3.06706
617 206 3 0.41 2.29726 6.39422 4.22151
618 206 5 -0.82 2.7372 6.16144 3.32237
619 207 3 0.41 -0.453831 9.23807 6.5326
620 207 3 0.41 -1.45505 9.81649 5.37637
621 207 5 -0.82 -0.510006 9.68761 5.63164
622 208 3 0.41 10.09 2.11879 1.01141
623 208 3 0.41 11.4157 2.95267 1.56283
624 208 5 -0.82 10.6109 3.05125 0.980704
625 209 3 0.41 0.0223916 -0.555478 -20.5134
626 209 3 0.41 -0.23126 0.317897 -19.147
627 209 5 -0.82 -0.179073 -0.653862 -19.5378
628 210 3 0.41 10.0212 11.9574 10.8006
629 210 3 0.41 10.2215 10.5865 11.4611
630 210 5 -0.82 9.81894 11.0263 10.6244
631 211 3 0.41 10.5324 1.99234 13.9498
632 211 3 0.41 10.5358 2.06149 12.3717
633 211 5 -0.82 10.2973 1.42188 13.1326
634 212 3 0.41 4.63901 -0.603057 22.8374
635 212 3 0.41 5.79699 -0.221625 21.8663
636 212 5 -0.82 5.14424 -0.994273 22.0811
637 213 3 0.41 11.4583 -0.66498 2.60644
638 213 3 0.41 12.4034 0.0208514 3.71194
639 213 5 -0.82 12.2215 -0.899836 3.25061
640 214 3 0.41 0.156659 0.612762 -5.57973
641 214 3 0.41 0.685667 1.49399 -6.59929
642 214 5 -0.82 0.439777 1.56039 -5.61595
643 215 3 0.41 10.8094 9.39398 -19.5508
644 215 3 0.41 11.9031 8.75187 -20.186
645 215 5 -0.82 11.1949 8.50404 -19.5405
646 216 3 0.41 2.30224 0.544834 7.64267
647 216 3 0.41 3.04993 0.539586 9.02187
648 216 5 -0.82 2.10308 0.575217 8.61822
649 217 3 0.41 10.149 -1.47902 -16.1918
650 217 3 0.41 8.78576 11.6899 -15.9493
651 217 5 -0.82 9.12036 -1.3973 -16.1358
652 218 3 0.41 7.99247 1.35417 5.09516
653 218 3 0.41 8.32645 1.91111 6.60442
654 218 5 -0.82 8.2172 1.07449 6.05239
655 219 3 0.41 7.79227 7.11163 -13.6981
656 219 3 0.41 8.09439 8.70828 -13.5706
657 219 5 -0.82 8.53122 7.83089 -13.8039
658 220 3 0.41 9.03659 6.00512 16.4216
659 220 3 0.41 9.68947 7.07696 15.4699
660 220 5 -0.82 9.18229 7.02811 16.3296
661 221 3 0.41 2.83929 7.23131 -21.0734
662 221 3 0.41 2.8498 6.83442 -19.4961
663 221 5 -0.82 3.45663 6.88499 -20.3101
664 222 3 0.41 10.7144 -0.9003 -18.8256
665 222 3 0.41 11.2158 -0.0329282 -20.08
666 222 5 -0.82 10.6226 -0.0264449 -19.3032
667 223 3 0.41 2.27663 8.57364 -8.75864
668 223 3 0.41 3.77518 8.31791 -8.28709
669 223 5 -0.82 3.19318 9.0018 -8.82088
670 224 3 0.41 6.86764 7.55729 0.889901
671 224 3 0.41 5.63402 7.97123 1.66993
672 224 5 -0.82 5.94526 7.88006 0.716901
673 225 3 0.41 3.22182 3.64959 3.93759
674 225 3 0.41 3.39459 2.63518 2.66094
675 225 5 -0.82 3.84873 3.45561 3.14208
676 226 3 0.41 10.4959 7.42106 19.5471
677 226 3 0.41 11.787 6.82058 19.9692
678 226 5 -0.82 11.2788 7.0009 19.1197
679 227 3 0.41 8.0079 6.80958 19.994
680 227 3 0.41 6.61125 6.29537 19.3994
681 227 5 -0.82 7.2367 7.12876 19.3987
682 228 3 0.41 4.90738 -0.16335 -12.2607
683 228 3 0.41 5.98895 -1.33817 -12.3345
684 228 5 -0.82 5.7927 -0.487397 -11.8475
685 229 3 0.41 6.62288 8.9578 -21.606
686 229 3 0.41 5.11298 8.81347 -21.3077
687 229 5 -0.82 5.94294 8.22468 -21.4296
688 230 3 0.41 1.8399 4.31531 4.74725
689 230 3 0.41 1.44621 3.25355 5.91461
690 230 5 -0.82 2.24206 3.58142 5.30729
691 231 3 0.41 0.813508 9.26977 -15.9022
692 231 3 0.41 1.33532 10.4953 -16.6938
693 231 5 -0.82 1.64937 9.57966 -16.3573
694 232 3 0.41 8.29712 2.53483 -2.41509
695 232 3 0.41 8.40125 3.86788 -1.48556
696 232 5 -0.82 8.67933 2.92386 -1.53656
697 233 3 0.41 0.788643 4.01602 -0.47798
698 233 3 0.41 -0.678158 4.25689 -0.131043
699 233 5 -0.82 -0.0545993 3.5008 -0.161617
700 234 3 0.41 3.60653 5.96388 9.36792
701 234 3 0.41 4.4608 6.98456 10.3172
702 234 5 -0.82 4.04594 6.05082 10.2515
703 235 3 0.41 4.16407 2.19168 10.3858
704 235 3 0.41 3.08758 2.52371 11.4489
705 235 5 -0.82 3.85132 2.96892 10.953
706 236 3 0.41 10.4506 8.57748 0.476526
707 236 3 0.41 11.0335 7.28173 0.835246
708 236 5 -0.82 11.274 8.06669 0.236382
709 237 3 0.41 0.847916 2.3788 7.76196
710 237 3 0.41 -0.720999 2.29585 7.16538
711 237 5 -0.82 0.254022 2.55441 6.98195
712 238 3 0.41 0.179671 9.18821 13.4465
713 238 3 0.41 0.920567 9.08226 12.1516
714 238 5 -0.82 0.0919271 9.55172 12.506
715 239 3 0.41 1.07604 9.56664 -2.86396
716 239 3 0.41 2.39417 9.56551 -1.96769
717 239 5 -0.82 1.98351 9.12494 -2.77992
718 240 3 0.41 2.06651 6.99447 -17.2353
719 240 3 0.41 0.687881 6.54194 -17.8938
720 240 5 -0.82 1.60891 6.89686 -18.1182
721 241 3 0.41 10.8827 5.28645 -0.245131
722 241 3 0.41 9.40132 5.72208 -0.208325
723 241 5 -0.82 10.1221 5.51538 -0.90838
724 242 3 0.41 -0.680195 6.11758 -2.58639
725 242 3 0.41 11.8672 6.42203 -3.00336
726 242 5 -0.82 -1.3907 5.72272 -3.16448
727 243 3 0.41 6.32433 0.347471 -17.0667
728 243 3 0.41 7.81411 -0.305235 -16.7524
729 243 5 -0.82 7.27092 0.254207 -17.3941
730 244 3 0.41 2.37111 5.03337 22.6007
731 244 3 0.41 2.0432 4.77371 21.1543
732 244 5 -0.82 1.7852 4.43713 22.0509
733 245 3 0.41 8.9519 3.70978 -22.4242
734 245 3 0.41 7.88687 4.58211 -21.8263
735 245 5 -0.82 7.9957 3.61724 -22.0967
736 246 3 0.41 5.99603 6.95231 11.7864
737 246 3 0.41 7.42879 6.33973 11.1619
738 246 5 -0.82 6.51086 6.09149 11.5424
739 247 3 0.41 2.04446 5.58072 18.8255
740 247 3 0.41 3.10144 4.39297 19.1855
741 247 5 -0.82 2.68894 5.24257 19.5392
742 248 3 0.41 12.4289 6.1538 10.4049
743 248 3 0.41 -1.38465 5.13198 9.17021
744 248 5 -0.82 -1.20662 5.24033 10.1608
745 249 3 0.41 3.9063 -1.00069 -16.3957
746 249 3 0.41 3.13483 -0.429739 -17.7777
747 249 5 -0.82 3.97886 -0.38284 -17.1822
748 250 3 0.41 9.77544 1.81254 22.2117
749 250 3 0.41 9.46963 3.45533 22.1338
750 250 5 -0.82 9.04397 2.52922 21.9627
751 251 3 0.41 -0.118994 1.34515 23.0627
752 251 3 0.41 -1.48263 1.14706 22.1249