ITEM: TIMESTEP
60000
ITEM: NUMBER OF ATOMS
1360
ITEM: BOX BOUNDS pp pp pp
-1.5000000000000000e+00 1.2500000000000000e+01
-1.5000000000000000e+00 1.2500000000000000e+01
-2.7500000000000000e+01 2.7500000000000000e+01
ITEM: ATOMS id mol type q x y z
1 1 3 0.41 1.95019 -0.92108 5.81584
2 1 3 0.41 0.886511 -0.67411 4.73257
3 1 5 -0.82 1.02472 -1.23195 5.57015
4 2 3 0.41 3.16138 10.0057 -11.4785
5 2 3 0.41 1.79545 9.42042 -12.0282
6 2 5 -0.82 2.46726 10.1859 -12.1426
7 3 3 0.41 12.1325 0.328132 11.7284
8 3 3 0.41 -1.25902 -0.688318 10.531
9 3 5 -0.82 11.8782 -0.341869 10.9667
10 4 3 0.41 3.91867 4.73764 -12.8447
11 4 3 0.41 3.58126 4.79615 -14.3159
12 4 5 -0.82 4.37545 4.47933 -13.668
13 5 3 0.41 1.87475 4.12704 -10.3284
14 5 3 0.41 2.57899 4.98395 -11.3986
15 5 5 -0.82 2.45603 4.02924 -11.1444
16 6 3 0.41 -0.171661 7.92421 -14.2204
17 6 3 0.41 1.04311 7.89654 -15.4173
18 6 5 -0.82 0.799997 7.65747 -14.437
19 7 3 0.41 3.5843 5.71615 -21.8203
20 7 3 0.41 3.82275 4.75157 -20.6789
21 7 5 -0.82 3.92379 4.77806 -21.7103
22 8 3 0.41 12.177 3.13524 14.9389
23 8 3 0.41 -0.673872 3.72848 15.8786
24 8 5 -0.82 -0.850776 2.95636 15.1745
25 9 3 0.41 11.5344 -1.12723 -11.7107
26 9 3 0.41 -0.986455 -0.601169 -11.2786
27 9 5 -0.82 12.3178 -1.40286 -11.1138
28 10 3 0.41 4.10871 9.08544 -3.89408
29 10 3 0.41 2.99534 8.49902 -3.03935
30 10 5 -0.82 3.0759 9.14375 -3.76961
31 11 3 0.41 2.98972 10.171 -6.53223
32 11 3 0.41 2.69258 10.5941 -4.94209
33 11 5 -0.82 3.07174 10.9378 -5.85299
34 12 3 0.41 9.77653 10.1943 -16.2334
35 12 3 0.41 8.29452 9.44051 -16.2553
36 12 5 -0.82 9.28405 9.35118 -16.3471
37 13 3 0.41 -0.509273 10.4929 11.2823
38 13 3 0.41 -1.34738 9.59474 12.336
39 13 5 -0.82 -0.459039 9.66897 11.8776
40 14 3 0.41 5.27837 9.60063 -16.7722
41 14 3 0.41 6.15997 8.45984 -16.0908
42 14 5 -0.82 6.24538 9.3998 -16.5075
43 15 3 0.41 3.97371 -0.769088 11.4185
44 15 3 0.41 5.52099 -0.767005 11.9489
45 15 5 -0.82 4.57072 -0.519828 12.2166
46 16 3 0.41 5.2585 10.2305 20.3274
47 16 3 0.41 3.85394 10.5509 19.6688
48 16 5 -0.82 4.80688 10.3327 19.4252
49 17 3 0.41 7.56671 1.49265 21.9562
50 17 3 0.41 7.87169 2.0687 20.515
51 17 5 -0.82 8.35984 1.81625 21.3805
52 18 3 0.41 11.982 10.1706 -16.9231
53 18 3 0.41 -1.28251 10.133 -18.3328
54 18 5 -0.82 11.7554 10.0925 -17.9214
55 19 3 0.41 9.25319 4.68705 7.64604
56 19 3 0.41 10.2834 3.73522 6.81998
57 19 5 -0.82 10.0337 4.69357 6.96978
58 20 3 0.41 11.6878 7.10565 -3.27334
59 20 3 0.41 11.7359 5.52436 -2.98898
60 20 5 -0.82 12.3315 6.31965 -3.21019
61 21 3 0.41 7.28806 4.96649 23.1129
62 21 3 0.41 6.45846 4.55808 21.8301
63 21 5 -0.82 7.39082 4.87383 22.1071
64 22 3 0.41 8.00818 1.81313 -16.7974
65 22 3 0.41 8.63803 2.91051 -17.8861
66 22 5 -0.82 7.95655 2.77274 -17.1556
67 23 3 0.41 5.38626 12.1857 -22.3243
68 23 3 0.41 6.4825 -0.651941 -22.1026
69 23 5 -0.82 6.37313 12.3644 -22.2584
70 24 3 0.41 3.57453 7.66894 -9.67819
71 24 3 0.41 3.1586 6.70526 -8.51843
72 24 5 -0.82 3.19344 6.73928 -9.4841
73 25 3 0.41 1.06011 2.0149 -12.7974
74 25 3 0.41 1.86166 3.2782 -12.4654
75 25 5 -0.82 1.59054 2.7391 -13.2658
76 26 3 0.41 9.72459 11.7924 -11.0145
77 26 3 0.41 11.0287 11.0164 -10.7162
78 26 5 -0.82 10.0653 10.8624 -10.9562
79 27 3 0.41 3.24923 10.4433 -16.0535
80 27 3 0.41 3.64551 11.6322 -17.1635
81 27 5 -0.82 3.8748 10.6823 -16.8117
82 28 3 0.41 0.0631337 4.72041 -9.05545
83 28 3 0.41 1.1623 4.30814 -7.88898
84 28 5 -0.82 0.934657 4.24026 -8.88287
85 29 3 0.41 -0.806367 -1.41479 18.6997
86 29 3 0.41 -1.29313 12.2657 20.2501
87 29 5 -0.82 -0.501083 -1.45612 19.6908
88 30 3 0.41 11.176 10.0707 9.10487
89 30 3 0.41 11.9952 11.3766 8.37283
90 30 5 -0.82 11.1422 10.8169 8.35897
91 31 3 0.41 0.148778 11.984 -19.7605
92 31 3 0.41 -1.22511 -1.18183 -19.4472
93 31 5 -0.82 -0.822045 12.0873 -20.0042
94 32 3 0.41 1.32411 3.68778 -20.3648
95 32 3 0.41 1.14582 5.1597 -21.1211
96 32 5 -0.82 0.845964 4.17882 -21.1271
97 33 3 0.41 9.9863 1.52881 -4.14304
98 33 3 0.41 10.4484 1.53648 -5.55332
99 33 5 -0.82 10.807 1.25912 -4.62813
100 34 3 0.41 11.9107 7.48405 2.35519
101 34 3 0.41 12.2313 5.88898 2.57611
102 34 5 -0.82 -1.38924 6.754 2.25659
103 35 3 0.41 -1.47012 6.39333 12.5265
104 35 3 0.41 10.9746 6.42608 11.9836
105 35 5 -0.82 11.9816 6.5228 11.6619
106 36 3 0.41 3.0594 2.73775 -0.638219
107 36 3 0.41 4.56789 3.34049 -1.04052
108 36 5 -0.82 3.55162 3.40739 -1.27647
109 37 3 0.41 0.386955 9.55323 23.1049
110 37 3 0.41 -0.669507 10.1904 21.9369
111 37 5 -0.82 0.135374 9.61071 22.1116
112 38 3 0.41 10.132 1.40437 -1.57815
113 38 3 0.41 10.8553 0.773379 -2.855
114 38 5 -0.82 10.3752 0.541685 -1.99939
115 39 3 0.41 8.64859 7.71895 -13.4804
116 39 3 0.41 9.72988 8.75217 -14.1391
117 39 5 -0.82 9.58821 7.80701 -13.8265
118 40 3 0.41 7.16722 10.5828 -18.0329
119 40 3 0.41 8.22817 11.462 -18.8225
120 40 5 -0.82 7.31715 11.5097 -18.3664
121 41 3 0.41 5.38678 1.60162 -16.5366
122 41 3 0.41 6.33714 0.471843 -17.1256
123 41 5 -0.82 5.45716 0.926684 -17.3085
124 42 3 0.41 3.41389 7.79361 4.64343
125 42 3 0.41 3.41941 9.31773 4.82135
126 42 5 -0.82 4.0987 8.58144 4.65307
127 43 3 0.41 11.5108 0.851914 18.4266
128 43 3 0.41 -1.03631 1.24344 18.7181
129 43 5 -0.82 12.4047 0.863127 17.9669
130 44 3 0.41 5.10583 4.96258 -16.282
131 44 3 0.41 4.49277 5.05414 -17.8198
132 44 5 -0.82 4.73451 4.4255 -17.041
133 45 3 0.41 7.92306 3.42758 2.45781
134 45 3 0.41 8.8452 2.38781 3.12215
135 45 5 -0.82 8.46065 3.29552 3.31354
136 46 3 0.41 11.9417 0.584685 13.7509
137 46 3 0.41 -1.44003 2.0261 13.6103
138 46 5 -0.82 12.4005 1.21498 13.0585
139 47 3 0.41 1.98461 11.1486 -1.04487
140 47 3 0.41 0.873297 10.1007 -0.716132
141 47 5 -0.82 0.968415 11.0547 -1.00374
142 48 3 0.41 0.401453 2.00553 20.4463
143 48 3 0.41 0.881259 1.76061 18.8274
144 48 5 -0.82 0.560925 1.31627 19.6979
145 49 3 0.41 9.4059 -1.10282 -5.43286
146 49 3 0.41 10.585 12.4401 -4.48227
147 49 5 -0.82 10.2877 12.4156 -5.41654
148 50 3 0.41 11.1568 10.6241 21.2687
149 50 3 0.41 11.2479 12.1515 21.7279
150 50 5 -0.82 11.816 11.3607 21.479
151 51 3 0.41 2.66913 9.99294 9.01875
152 51 3 0.41 1.19094 10.2353 9.72138
153 51 5 -0.82 2.0529 9.68688 9.76149
154 52 3 0.41 -1.2987 3.08889 -14.4191
155 52 3 0.41 11.3046 2.92684 -13.4122
156 52 5 -0.82 12.0366 2.45711 -13.9725
157 53 3 0.41 0.0573957 5.49552 3.82591
158 53 3 0.41 0.981098 4.18021 4.31824
159 53 5 -0.82 0.385734 4.53949 3.61281
160 54 3 0.41 7.72781 10.1652 13.6533
161 54 3 0.41 7.88323 9.47214 12.2233
162 54 5 -0.82 8.07994 9.28627 13.1841
163 55 3 0.41 2.00509 7.4093 13.7397
164 55 3 0.41 1.5868 6.07641 14.5776
165 55 5 -0.82 1.83397 7.04236 14.6768
166 56 3 0.41 -0.0356008 3.03438 8.43445
167 56 3 0.41 1.37805 2.20757 7.99811
168 56 5 -0.82 0.958519 3.14337 8.20344
169 57 3 0.41 6.20869 11.5949 -16.5478
170 57 3 0.41 5.25342 11.9798 -15.2974
171 57 5 -0.82 6.06494 12.3307 -15.8259
172 58 3 0.41 1.82023 11.5101 -19.0641
173 58 3 0.41 3.16562 12.1348 -19.6703
174 58 5 -0.82 2.502 11.3928 -19.7992
175 59 3 0.41 -0.897623 4.53883 6.11265
176 59 3 0.41 -0.892942 5.02092 7.64719
177 59 5 -0.82 -0.793265 5.38648 6.69338
178 60 3 0.41 6.88494 6.34775 2.62203
179 60 3 0.41 5.40527 6.39281 3.10082
180 60 5 -0.82 6.13286 6.97138 2.83844
181 61 3 0.41 9.59647 1.67462 13.9688
182 61 3 0.41 8.70243 1.13107 15.219
183 61 5 -0.82 9.03489 0.893329 14.2916
184 62 3 0.41 2.37633 5.52228 4.87373
185 62 3 0.41 3.66436 6.27722 4.69854
186 62 5 -0.82 2.77803 6.21947 4.27377
187 63 3 0.41 3.7996 8.08819 18.9848
188 63 3 0.41 3.00905 7.22061 20.1529
189 63 5 -0.82 3.35253 7.24341 19.2236
190 64 3 0.41 10.0633 10.3339 7.16453
191 64 3 0.41 10.2064 10.0015 5.56497
192 64 5 -0.82 9.49714 10.259 6.27889
193 65 3 0.41 0.916852 2.94211 -3.30178
194 65 3 0.41 2.35068 2.51273 -4.07428
195 65 5 -0.82 1.49353 2.16352 -3.62052
196 66 3 0.41 -0.894545 3.40034 -0.637501
197 66 3 0.41 12.0598 3.44175 -1.83429
198 66 5 -0.82 12.3936 2.82828 -1.08526
199 67 3 0.41 7.14814 9.40499 9.84491
200 67 3 0.41 8.3141 10.4918 10.2255
201 67 5 -0.82 7.92789 9.58806 10.4768
202 68 3 0.41 6.33083 8.41008 18.3084
203 68 3 0.41 5.87895 9.81122 17.8162
204 68 5 -0.82 6.12285 8.90064 17.4371
205 69 3 0.41 11.6342 2.42319 -21.8012
206 69 3 0.41 12.3786 0.960682 -21.7805
207 69 5 -0.82 11.4527 1.38386 -21.7228
208 70 3 0.41 9.69012 6.1845 -19.4993
209 70 3 0.41 9.15651 6.1326 -18.0823
210 70 5 -0.82 9.01481 5.63083 -18.952
211 71 3 0.41 2.86133 3.56736 1.8272
212 71 3 0.41 3.44992 4.62022 2.83535
213 71 5 -0.82 3.31999 4.43308 1.84323
214 72 3 0.41 2.99702 10.2745 16.8131
215 72 3 0.41 3.49277 9.07265 15.8006
216 72 5 -0.82 2.95219 9.27578 16.6352
217 73 3 0.41 1.04257 11.4388 -8.25706
218 73 3 0.41 1.15967 11.487 -9.86749
219 73 5 -0.82 1.52748 11.8745 -9.01297
220 74 3 0.41 8.59084 10.2673 1.94867
221 74 3 0.41 9.05914 10.4177 0.427789
222 74 5 -0.82 8.21949 10.2163 0.973677
223 75 3 0.41 -1.47403 5.17197 -7.24579
224 75 3 0.41 12.0343 4.54925 -5.78214
225 75 5 -0.82 12.4249 4.29412 -6.69901
226 76 3 0.41 6.64445 1.64163 -14.7449
227 76 3 0.41 5.85379 0.562884 -13.9377
228 76 5 -0.82 6.80232 0.7694 -14.2496
229 77 3 0.41 -0.685185 8.71832 14.527
230 77 3 0.41 12.1231 8.08327 15.3184
231 77 5 -0.82 -0.868016 7.98629 15.1314
232 78 3 0.41 12.0778 5.95084 -9.12225
233 78 3 0.41 -0.610798 6.71609 -9.29645
234 78 5 -0.82 -1.02832 5.90491 -8.81304
235 79 3 0.41 11.2905 9.00411 4.05629
236 79 3 0.41 -1.38477 8.42174 4.85881
237 79 5 -0.82 11.8138 9.03803 4.95256
238 80 3 0.41 4.2957 1.26063 -12.8456
239 80 3 0.41 3.81861 1.23793 -14.4034
240 80 5 -0.82 4.23979 0.669385 -13.6793
241 81 3 0.41 0.824537 11.6447 -2.84971
242 81 3 0.41 -0.415905 11.1382 -3.59798
243 81 5 -0.82 0.179146 11.9315 -3.59371
244 82 3 0.41 4.42079 5.37865 0.955345
245 82 3 0.41 4.26459 5.60554 -0.589373
246 82 5 -0.82 4.97741 5.60613 0.144339
247 83 3 0.41 -1.23221 7.92449 0.157781
248 83 3 0.41 -0.539757 9.36433 0.94168
249 83 5 -0.82 -1.22664 8.94645 0.292172
250 84 3 0.41 3.2822 -0.76399 3.76144
251 84 3 0.41 2.49402 -0.0618418 2.56312
252 84 5 -0.82 2.66697 -0.982301 2.96697
253 85 3 0.41 9.18707 10.6616 23.2082
254 85 3 0.41 9.06144 9.46474 22.1609
255 85 5 -0.82 9.07007 10.4799 22.1809
256 86 3 0.41 0.212776 5.21793 -17.8941
257 86 3 0.41 1.71187 4.83038 -18.4671
258 86 5 -0.82 1.18885 5.35702 -17.7617
259 87 3 0.41 11.5441 11.8044 2.77415
260 87 3 0.41 10.803 10.4062 2.42067
261 87 5 -0.82 10.6842 11.3059 2.85925
262 88 3 0.41 12.4269 5.5522 17.1924
263 88 3 0.41 11.1922 5.89454 18.2699
264 88 5 -0.82 11.4718 5.97434 17.3033
265 89 3 0.41 10.884 6.49362 -21.9938
266 89 3 0.41 9.27922 6.67748 -21.7838
267 89 5 -0.82 10.0498 6.00461 -21.6257
268 90 3 0.41 9.37498 3.99321 -14.1934
269 90 3 0.41 8.67706 3.58137 -12.7252
270 90 5 -0.82 9.49877 3.51021 -13.3083
271 91 3 0.41 -0.115098 10.2108 7.5386
272 91 3 0.41 -0.769586 8.75534 7.34973
273 91 5 -0.82 0.0468854 9.30504 7.10737
274 92 3 0.41 9.6509 -0.10178 4.82483
275 92 3 0.41 8.20762 0.570721 4.48862
276 92 5 -0.82 9.1419 0.500586 4.17858
277 93 3 0.41 9.51137 5.55307 9.92972
278 93 3 0.41 9.38984 6.86495 8.94238
279 93 5 -0.82 9.96884 6.37904 9.62112
280 94 3 0.41 1.30212 3.99685 6.78245
281 94 3 0.41 2.80111 3.86313 5.97386
282 94 5 -0.82 1.84154 4.17925 5.93288
283 95 3 0.41 9.27225 12.2152 11.8125
284 95 3 0.41 10.0158 12.2457 10.4129
285 95 5 -0.82 9.20927 11.8939 10.8262
286 96 3 0.41 2.95471 12.0725 13.573
287 96 3 0.41 1.99371 12.1512 12.3813
288 96 5 -0.82 2.55654 11.4513 12.8306
289 97 3 0.41 9.99187 4.21024 17.1042
290 97 3 0.41 9.01521 3.81745 18.3487
291 97 5 -0.82 9.83391 3.50345 17.8324
292 98 3 0.41 10.4892 12.3799 -19.5691
293 98 3 0.41 10.6315 10.8745 -19.1093
294 98 5 -0.82 9.9851 11.5203 -19.5267
295 99 3 0.41 11.6488 9.45079 -2.75472
296 99 3 0.41 -1.17841 9.16188 -1.78188
297 99 5 -0.82 -1.36544 9.63391 -2.64224
298 100 3 0.41 6.18819 11.6211 1.96163
299 100 3 0.41 7.31388 12.4625 2.67151
300 100 5 -0.82 6.59297 -1.44415 1.98358
301 101 3 0.41 8.63846 6.48101 -5.45977
302 101 3 0.41 8.43417 8.0829 -5.72591
303 101 5 -0.82 7.91974 7.18025 -5.72087
304 102 3 0.41 10.1362 0.374222 -21.83
305 102 3 0.41 8.76182 -0.049703 -21.0571
306 102 5 -0.82 9.49699 -0.374068 -21.6966
307 103 3 0.41 7.55924 -1.43845 17.0249
308 103 3 0.41 8.99162 -1.41977 17.7633
309 103 5 -0.82 8.53337 -1.30014 16.8452
310 104 3 0.41 -0.588548 6.34694 -12.9361
311 104 3 0.41 0.0258164 6.39792 -11.5083
312 104 5 -0.82 -0.0912993 5.7378 -12.2489
313 105 3 0.41 -0.856473 -0.000598472 5.78038
314 105 3 0.41 -0.105121 0.657407 6.83996
315 105 5 -0.82 -1.01674 0.666085 6.5004
316 106 3 0.41 3.05727 6.82937 -5.33099
317 106 3 0.41 4.33793 6.4396 -6.11192
318 106 5 -0.82 3.39393 6.7936 -6.30056
319 107 3 0.41 5.05663 11.9457 -8.70578
320 107 3 0.41 4.94663 10.4858 -7.92405
321 107 5 -0.82 5.1792 10.9464 -8.79471
322 108 3 0.41 -0.13939 9.51263 -20.3313
323 108 3 0.41 0.274693 8.0611 -19.836
324 108 5 -0.82 -0.0794545 8.95718 -19.5054
325 109 3 0.41 6.58955 10.8074 -20.8134
326 109 3 0.41 5.17093 10.0393 -20.8965
327 109 5 -0.82 6.15787 9.88345 -20.9028
328 110 3 0.41 8.64265 2.19742 0.216534
329 110 3 0.41 9.55842 3.5008 0.227079
330 110 5 -0.82 9.1566 2.82429 -0.432459
331 111 3 0.41 9.77673 5.57901 -10.9574
332 111 3 0.41 10.8328 6.5409 -10.8967
333 111 5 -0.82 10.8192 5.55213 -11.0198
334 112 3 0.41 -0.835378 4.27026 -21.5856
335 112 3 0.41 11.5524 4.66625 -21.423
336 112 5 -0.82 12.2119 3.99622 -21.8274
337 113 3 0.41 6.41746 4.89802 14.0647
338 113 3 0.41 5.93158 6.49265 14.3092
339 113 5 -0.82 5.70551 5.59969 13.8417
340 114 3 0.41 5.01828 11.7746 -12.9605
341 114 3 0.41 3.54614 11.8601 -13.5522
342 114 5 -0.82 4.43019 11.4156 -13.7591
343 115 3 0.41 8.65499 8.60821 8.77077
344 115 3 0.41 7.52866 7.75422 8.06521
345 115 5 -0.82 8.46814 8.06736 7.93449
346 116 3 0.41 6.11334 6.61528 19.0942
347 116 3 0.41 5.93046 7.40505 20.4842
348 116 5 -0.82 6.44513 7.46597 19.6004
349 117 3 0.41 11.5413 10.0206 -14.893
350 117 3 0.41 -0.909118 10.5987 -14.7971
351 117 5 -0.82 12.4546 9.97246 -15.347
352 118 3 0.41 7.21561 6.2556 -1.45814
353 118 3 0.41 6.5088 4.8729 -1.11934
354 118 5 -0.82 7.26383 5.28655 -1.64285
355 119 3 0.41 5.97732 2.25593 -6.84087
356 119 3 0.41 6.8043 1.29779 -7.87624
357 119 5 -0.82 6.71535 1.55265 -6.86536
358 120 3 0.41 5.49803 8.38954 9.2154
359 120 3 0.41 5.05924 9.85323 8.74205
360 120 5 -0.82 5.88806 9.24582 8.82243
361 121 3 0.41 10.8775 4.86136 -16.2867
362 121 3 0.41 12.3799 4.40317 -16.2771
363 121 5 -0.82 11.5214 4.26476 -16.7758
364 122 3 0.41 2.20318 -1.16616 10.1455
365 122 3 0.41 3.20149 0.297879 10.0189
366 122 5 -0.82 3.14009 -0.73789 10.0642
367 123 3 0.41 -0.409049 11.7311 5.4771
368 123 3 0.41 12.249 10.7108 5.28197
369 123 5 -0.82 -1.40999 11.5543 5.73883
370 124 3 0.41 11.5844 7.97074 -6.01499
371 124 3 0.41 10.9901 6.88543 -4.99273
372 124 5 -0.82 11.3801 6.97146 -5.92541
373 125 3 0.41 0.715358 12.0988 -13.5722
374 125 3 0.41 -0.898293 -1.33672 -13.9298
375 125 5 -0.82 -0.246593 11.8293 -13.7881
376 126 3 0.41 2.04279 1.23133 -15.3714
377 126 3 0.41 1.32884 -0.0842723 -14.7222
378 126 5 -0.82 1.27724 0.613223 -15.4694
379 127 3 0.41 4.78968 7.72721 16.6058
380 127 3 0.41 3.43195 7.01759 16.1872
381 127 5 -0.82 4.42745 6.82951 16.3274
382 128 3 0.41 9.31061 1.61539 6.98123
383 128 3 0.41 10.6025 1.38811 6.03192
384 128 5 -0.82 10.2142 1.97382 6.71168
385 129 3 0.41 6.94471 3.81658 0.692454
386 129 3 0.41 6.46903 5.32482 0.765356
387 129 5 -0.82 7.11552 4.67006 1.18678
388 130 3 0.41 0.682304 2.13377 -7.30669
389 130 3 0.41 -0.370898 3.06481 -6.34926
390 130 5 -0.82 0.0241586 2.12375 -6.48897
391 131 3 0.41 12.3921 0.083682 -16.9264
392 131 3 0.41 -0.112511 -0.153396 -16.3058
393 131 5 -0.82 -0.742166 -0.449072 -17.0416
394 132 3 0.41 1.58668 9.12361 -4.43619
395 132 3 0.41 0.0683456 8.95485 -4.20787
396 132 5 -0.82 0.720146 9.21916 -4.89182
397 133 3 0.41 8.60906 11.341 5.09647
398 133 3 0.41 9.20286 11.5852 3.59989
399 133 5 -0.82 8.32238 11.51 4.11943
400 134 3 0.41 -0.470257 -0.0620719 -1.61973
401 134 3 0.41 -1.05805 1.45004 -1.72702
402 134 5 -0.82 -0.623382 0.701894 -2.27714
403 135 3 0.41 8.10174 3.28332 -22.1136
404 135 3 0.41 9.26716 4.34442 -22.1234
405 135 5 -0.82 9.11252 3.38432 -22.3091
406 136 3 0.41 5.15307 9.93978 12.0501
407 136 3 0.41 3.87039 10.7555 11.9367
408 136 5 -0.82 4.80951 10.7423 11.5261
409 137 3 0.41 10.7099 8.40158 1.30355
410 137 3 0.41 9.80841 8.47845 2.87079
411 137 5 -0.82 10.7219 8.64744 2.35719
412 138 3 0.41 2.11607 7.126 18.253
413 138 3 0.41 0.608388 7.49214 18.4762
414 138 5 -0.82 1.2166 7.11058 17.7858
415 139 3 0.41 10.1565 7.6572 22.0432
416 139 3 0.41 11.4336 7.89841 23.0213
417 139 5 -0.82 11.1342 7.90123 22.0288
418 140 3 0.41 6.88843 8.34599 -3.98098
419 140 3 0.41 6.03709 8.75479 -5.22956
420 140 5 -0.82 5.95342 8.61929 -4.19356
421 141 3 0.41 6.21195 12.452 -19.4703
422 141 3 0.41 4.82709 -1.26548 -18.8072
423 141 5 -0.82 5.28524 -1.34555 -19.7052
424 142 3 0.41 0.715835 6.78322 -4.46557
425 142 3 0.41 -0.382191 6.55752 -5.51307
426 142 5 -0.82 0.516926 6.13061 -5.26548
427 143 3 0.41 8.16597 3.28719 13.4427
428 143 3 0.41 7.64049 3.42322 11.8887
429 143 5 -0.82 7.33596 3.40167 12.8823
430 144 3 0.41 2.87424 -1.37978 -10.0618
431 144 3 0.41 3.11521 0.0484482 -10.685
432 144 5 -0.82 3.60756 -0.76991 -10.3802
433 145 3 0.41 10.0629 2.20884 -7.69051
434 145 3 0.41 8.48283 1.68531 -7.0956
435 145 5 -0.82 9.47069 1.86265 -6.91465
436 146 3 0.41 9.41339 1.27803 -9.28433
437 146 3 0.41 10.4229 0.166463 -9.74723
438 146 5 -0.82 9.50377 0.266172 -9.39187
439 147 3 0.41 12.0807 1.80379 -8.69627
440 147 3 0.41 12.2023 3.28198 -8.04465
441 147 5 -0.82 11.7026 2.74904 -8.74986
442 148 3 0.41 2.09807 11.9802 19.9102
443 148 3 0.41 2.75621 -1.18927 18.7717
444 148 5 -0.82 2.3805 -1.0752 19.6892
445 149 3 0.41 0.00379096 5.21923 -2.54067
446 149 3 0.41 0.968578 4.45384 -1.69117
447 149 5 -0.82 0.329815 4.30396 -2.46983
448 150 3 0.41 1.69903 8.80878 -7.82159
449 150 3 0.41 2.20546 10.2331 -8.42021
450 150 5 -0.82 2.53332 9.44354 -7.91411
451 151 3 0.41 2.22369 2.10788 10.5447
452 151 3 0.41 3.71546 2.61734 10.6774
453 151 5 -0.82 3.14151 1.86792 10.2349
454 152 3 0.41 7.61589 9.69874 3.85742
455 152 3 0.41 7.28188 8.24166 3.48559
456 152 5 -0.82 8.00173 8.79044 3.91214
457 153 3 0.41 -1.26847 4.38722 10.3394
458 153 3 0.41 -0.147822 5.34048 9.90453
459 153 5 -0.82 -1.01952 4.95083 9.52804
460 154 3 0.41 7.83725 4.73784 -19.6564
461 154 3 0.41 6.90932 3.90353 -18.7235
462 154 5 -0.82 7.02903 4.08953 -19.7094
463 155 3 0.41 3.30403 12.3692 16.2584
464 155 3 0.41 4.18137 11.7583 17.5019
465 155 5 -0.82 3.21532 11.9327 17.2005
466 156 3 0.41 3.80584 6.91685 -19.2092
467 156 3 0.41 5.31871 6.31148 -19.176
468 156 5 -0.82 4.33008 6.04406 -19.1512
469 157 3 0.41 4.0813 -0.82091 14.0112
470 157 3 0.41 2.89605 -0.196345 15.0507
471 157 5 -0.82 3.61889 -0.907963 14.8965
472 158 3 0.41 1.87725 -0.672775 -12.4709
473 158 3 0.41 3.16185 -0.544808 -13.5552
474 158 5 -0.82 2.28535 -1.0757 -13.2928
475 159 3 0.41 1.30442 7.57404 -10.0781
476 159 3 0.41 0.494809 8.85286 -10.5345
477 159 5 -0.82 0.378588 7.88182 -10.2724
478 160 3 0.41 10.6443 11.0235 19.1075
479 160 3 0.41 11.2299 11.6449 17.7788
480 160 5 -0.82 10.8884 11.9215 18.6875
481 161 3 0.41 11.3349 0.62776 -19.8184
482 161 3 0.41 11.0568 0.576773 -18.2745
483 161 5 -0.82 11.1232 -0.025113 -19.0974
484 162 3 0.41 -0.868163 8.95228 -8.32241
485 162 3 0.41 11.9604 10.1292 -8.27744
486 162 5 -0.82 12.1919 9.16035 -8.60345
487 163 3 0.41 2.21254 10.7274 -14.2068
488 163 3 0.41 1.59228 9.33388 -14.5731
489 163 5 -0.82 2.06229 10.1285 -14.9941
490 164 3 0.41 5.66432 8.1182 -7.48305
491 164 3 0.41 4.19899 8.62146 -7.24201
492 164 5 -0.82 5.12784 8.84156 -6.93975
493 165 3 0.41 1.82834 9.86571 20.5714
494 165 3 0.41 0.894644 10.2251 19.3199
495 165 5 -0.82 1.81565 10.2873 19.6874
496 166 3 0.41 10.5514 0.991725 3.4666
497 166 3 0.41 11.5671 1.52173 2.28622
498 166 5 -0.82 11.4696 1.47006 3.32171
499 167 3 0.41 4.24872 5.77939 -10.7002
500 167 3 0.41 5.52434 5.2091 -10.1184
501 167 5 -0.82 5.21866 5.62264 -10.9808
502 168 3 0.41 1.73534 -0.506745 -8.31908
503 168 3 0.41 1.97895 -0.300057 -6.61953
504 168 5 -0.82 1.91412 0.124798 -7.543
505 169 3 0.41 2.04211 10.9329 5.23225
506 169 3 0.41 0.973159 9.69359 5.28594
507 169 5 -0.82 1.86996 9.96938 4.89663
508 170 3 0.41 11.9035 0.158361 8.06208
509 170 3 0.41 11.3564 -0.500627 9.43064
510 170 5 -0.82 11.0778 -0.273269 8.47839
511 171 3 0.41 11.0442 7.80523 6.90557
512 171 3 0.41 12.0682 6.73026 7.14335
513 171 5 -0.82 11.7575 7.53131 7.56806
514 172 3 0.41 11.6622 8.56918 19.4484
515 172 3 0.41 10.2443 8.50331 18.6756
516 172 5 -0.82 10.915 9.14023 19.114
517 173 3 0.41 6.44508 11.2859 6.83669
518 173 3 0.41 8.06331 11.2454 7.02419
519 173 5 -0.82 7.24808 11.7169 7.34194
520 174 3 0.41 10.1732 6.57393 19.5678
521 174 3 0.41 10.5733 5.59671 20.6881
522 174 5 -0.82 10.9773 6.10436 19.8824
523 175 3 0.41 11.5572 2.19601 8.07082
524 175 3 0.41 11.7821 2.76476 9.56346
525 175 5 -0.82 12.2354 2.26372 8.80482
526 176 3 0.41 -0.977735 3.59326 -3.5547
527 176 3 0.41 11.7568 2.7524 -4.25867
528 176 5 -0.82 12.2232 3.62931 -4.13326
529 177 3 0.41 10.6962 0.368523 15.528
530 177 3 0.41 12.1778 0.568981 16.1126
531 177 5 -0.82 11.6834 0.186307 15.3172
532 178 3 0.41 -0.763475 11.1504 -11.4039
533 178 3 0.41 -0.0306627 10.7062 -12.53
534 178 5 -0.82 -0.162364 10.354 -11.5902
535 179 3 0.41 3.17778 10.6679 -21.2149
536 179 3 0.41 3.09737 9.12827 -21.8769
537 179 5 -0.82 3.49099 10.068 -21.9759
538 180 3 0.41 5.17284 7.33153 0.563288
539 180 3 0.41 5.11066 8.64622 1.46791
540 180 5 -0.82 4.58383 8.18638 0.708494
541 181 3 0.41 7.55622 -1.41117 -3.97421
542 181 3 0.41 7.59263 0.218416 -3.90862
543 181 5 -0.82 7.69519 -0.590274 -4.55332
544 182 3 0.41 -0.263225 4.14774 -11.593
545 182 3 0.41 -0.215369 2.6704 -10.9433
546 182 5 -0.82 -0.83688 3.44899 -11.186
547 183 3 0.41 1.69983 5.86325 -14.9335
548 183 3 0.41 1.90718 4.70738 -16.0442
549 183 5 -0.82 2.36318 5.14403 -15.2559
550 184 3 0.41 3.97313 5.64197 13.1289
551 184 3 0.41 3.84977 6.44453 11.8319
552 184 5 -0.82 3.37204 5.75701 12.3056
553 185 3 0.41 3.54138 7.42922 -12.7263
554 185 3 0.41 1.98424 7.11981 -13.176
555 185 5 -0.82 2.72755 6.87092 -12.5066
556 186 3 0.41 1.36718 4.55102 -5.94181
557 186 3 0.41 2.78787 5.08535 -6.3186
558 186 5 -0.82 2.12404 4.36687 -6.5735
559 187 3 0.41 6.14376 0.558196 -2.12161
560 187 3 0.41 7.41878 -0.0295775 -1.37875
561 187 5 -0.82 7.13302 0.680663 -2.10497
562 188 3 0.41 4.58449 -0.599826 -21.1782
563 188 3 0.41 3.60114 0.515227 -21.7591
564 188 5 -0.82 3.87663 -0.471221 -21.8899
565 189 3 0.41 4.74869 8.02409 11.2697
566 189 3 0.41 6.14289 7.66331 11.8605
567 189 5 -0.82 5.27143 8.14022 12.1307
568 190 3 0.41 3.34414 9.60277 13.4775
569 190 3 0.41 4.60406 8.70604 13.8425
570 190 5 -0.82 4.09457 9.49233 14.22
571 191 3 0.41 1.78585 3.57432 14.0841
572 191 3 0.41 1.07373 4.17542 15.3776
573 191 5 -0.82 1.85955 4.29395 14.7975
574 192 3 0.41 8.1798 12.4339 20.6091
575 192 3 0.41 6.88263 -1.14015 19.711
576 192 5 -0.82 7.86279 12.4437 19.6557
577 193 3 0.41 3.4565 3.01146 18.6382
578 193 3 0.41 3.13545 1.90037 19.9358
579 193 5 -0.82 3.75014 2.10568 19.1041
580 194 3 0.41 -0.00405179 10.8586 14.4194
581 194 3 0.41 1.49784 10.3964 13.8203
582 194 5 -0.82 0.735742 10.161 14.4736
583 195 3 0.41 3.4198 2.21025 13.8
584 195 3 0.41 3.5402 0.887761 12.7217
585 195 5 -0.82 2.92704 1.46415 13.3371
586 196 3 0.41 10.8675 12.4478 -22.0313
587 196 3 0.41 12.1549 11.8539 -21.3179
588 196 5 -0.82 11.4428 11.6219 -22.0638
589 197 3 0.41 9.99309 6.37304 6.15674
590 197 3 0.41 9.83025 6.81577 4.56545
591 197 5 -0.82 9.81699 7.14339 5.53674
592 198 3 0.41 12.0126 1.4529 -11.9535
593 198 3 0.41 10.4861 0.733443 -11.7975
594 198 5 -0.82 11.1418 1.45478 -11.5034
595 199 3 0.41 4.67701 1.779 -5.06546
596 199 3 0.41 4.78785 0.753818 -3.91583
597 199 5 -0.82 4.80641 0.764165 -4.93315
598 200 3 0.41 4.5235 5.51725 7.51808
599 200 3 0.41 3.67882 6.72648 6.98971
600 200 5 -0.82 4.42002 6.06075 6.67261
601 201 3 0.41 7.99528 7.16661 18.9949
602 201 3 0.41 8.66015 6.59237 17.7862
603 201 5 -0.82 8.90909 7.22907 18.5447
604 202 3 0.41 6.59116 3.85085 -21.215
605 202 3 0.41 5.36422 4.17518 -22.2213
606 202 5 -0.82 6.28423 3.70693 -22.1795
607 203 3 0.41 1.97314 4.55414 18.869
608 203 3 0.41 3.26323 5.61343 18.9349
609 203 5 -0.82 2.97485 4.64106 18.7549
610 204 3 0.41 6.15913 9.53073 -12.7612
611 204 3 0.41 7.35793 9.49727 -11.8559
612 204 5 -0.82 7.12869 9.72215 -12.8003
613 205 3 0.41 12.0878 0.696253 -14.1216
614 205 3 0.41 11.0444 -0.384531 -13.8286
615 205 5 -0.82 12.013 -0.305982 -14.0369
616 206 3 0.41 4.04288 1.88475 3.14023
617 206 3 0.41 5.33964 1.13232 3.45172
618 206 5 -0.82 4.9933 1.84546 2.84146
619 207 3 0.41 1.6708 8.37523 7.10934
620 207 3 0.41 1.64405 6.86402 7.845
621 207 5 -0.82 2.23576 7.59394 7.48889
622 208 3 0.41 -1.06594 -1.26813 0.573578
623 208 3 0.41 -0.243761 12.007 -0.530415
624 208 5 -0.82 -1.0351 -1.2983 -0.436238
625 209 3 0.41 10.7529 2.51231 -18.8659
626 209 3 0.41 10.2764 2.55069 -20.4154
627 209 5 -0.82 9.92547 2.51578 -19.473
628 210 3 0.41 0.720755 8.10246 9.0672
629 210 3 0.41 -0.0358672 8.82352 10.3406
630 210 5 -0.82 -0.137243 8.04527 9.63479
631 211 3 0.41 7.4476 4.04875 16.4209
632 211 3 0.41 7.05601 2.55538 16.3087
633 211 5 -0.82 6.61892 3.45927 16.2522
634 212 3 0.41 3.4954 -0.375732 21.9964
635 212 3 0.41 3.91845 12.0882 22.5725
636 212 5 -0.82 4.25217 -1.06187 22.1116
637 213 3 0.41 3.89255 10.4423 2.37701
638 213 3 0.41 2.80777 11.5861 2.40079
639 213 5 -0.82 3.05155 10.7149 1.88194
640 214 3 0.41 -0.56726 1.00486 -5.70638
641 214 3 0.41 12.2667 0.245521 -4.71167
642 214 5 -0.82 -0.805057 0.113739 -5.14026
643 215 3 0.41 9.07098 9.3101 -19.9216
644 215 3 0.41 9.34046 9.16425 -18.2159
645 215 5 -0.82 8.79605 8.87515 -19.0559
646 216 3 0.41 5.94954 1.23107 7.3901
647 216 3 0.41 7.44383 0.950238 7.81233
648 216 5 -0.82 6.89033 1.38882 7.05165
649 217 3 0.41 9.02108 -0.499739 -16.8096
650 217 3 0.41 7.54436 -0.715057 -16.6381
651 217 5 -0.82 8.13859 -0.00894226 -16.9362
652 218 3 0.41 11.3711 12.4187 5.84232
653 218 3 0.41 10.7562 -0.547631 6.84738
654 218 5 -0.82 10.5622 -0.936923 5.95045
655 219 3 0.41 6.30402 6.97221 -13.8206
656 219 3 0.41 5.85217 6.44207 -12.3009
657 219 5 -0.82 6.64517 6.65025 -12.9227
658 220 3 0.41 -1.22474 4.82254 14.2262
659 220 3 0.41 -0.831185 6.40821 14.2661
660 220 5 -0.82 -0.681212 5.56197 13.7584
661 221 3 0.41 4.71889 7.40281 -22.2458
662 221 3 0.41 5.74245 8.29994 -21.5381
663 221 5 -0.82 5.68175 7.51541 -22.1454
664 222 3 0.41 8.49088 1.61879 -19.7448
665 222 3 0.41 8.06186 0.294214 -18.8766
666 222 5 -0.82 7.96912 0.731737 -19.7875
667 223 3 0.41 7.18332 4.53185 -8.34911
668 223 3 0.41 5.67365 4.26398 -7.90495
669 223 5 -0.82 6.27284 4.36124 -8.74759
670 224 3 0.41 8.50672 5.5874 2.48803
671 224 3 0.41 9.57951 6.37721 1.59569
672 224 5 -0.82 9.12788 6.38533 2.50515
673 225 3 0.41 5.5934 -0.510768 0.939014
674 225 3 0.41 4.53287 0.610696 1.16254
675 225 5 -0.82 4.98139 0.152328 0.426727
676 226 3 0.41 11.8815 2.7599 20.2052
677 226 3 0.41 11.625 3.45711 18.7146
678 226 5 -0.82 12.3003 3.2656 19.3886
679 227 3 0.41 7.74603 4.13355 20.4903
680 227 3 0.41 7.06973 4.49594 19.1091
681 227 5 -0.82 7.96835 4.24513 19.4943
682 228 3 0.41 6.57478 -0.165463 -11.613
683 228 3 0.41 7.27684 0.555498 -12.7948
684 228 5 -0.82 7.24983 0.606566 -11.774
685 229 3 0.41 8.36597 8.70089 -22.0811
686 229 3 0.41 7.37732 7.37329 -22.2374
687 229 5 -0.82 8.36228 7.70236 -22.2281
688 230 3 0.41 5.71329 -0.178989 4.84529
689 230 3 0.41 6.61022 0.899881 5.46876
690 230 5 -0.82 6.41913 0.506404 4.56918
691 231 3 0.41 3.42264 7.61468 -16.5372
692 231 3 0.41 3.39807 6.49501 -15.5021
693 231 5 -0.82 3.67711 7.49813 -15.5935
694 232 3 0.41 7.74704 2.69779 -4.08065
695 232 3 0.41 8.31234 1.7175 -2.98861
696 232 5 -0.82 8.65899 2.27908 -3.72766
697 233 3 0.41 3.4043 11.019 0.0752286
698 233 3 0.41 4.44281 11.0123 -1.11859
699 233 5 -0.82 3.64234 11.563 -0.745912
700 234 3 0.41 5.45045 1.57671 10.6755
701 234 3 0.41 6.63353 2.06571 9.95742
702 234 5 -0.82 6.33003 1.26661 10.4145
703 235 3 0.41 6.56855 11.9413 9.01314
704 235 3 0.41 5.55613 11.534 10.154
705 235 5 -0.82 6.22138 12.2439 9.89662
706 236 3 0.41 1.52012 10.4337 1.99277
707 236 3 0.41 0.907062 9.11623 2.5587
708 236 5 -0.82 0.602743 9.99716 2.11352
709 237 3 0.41 4.40359 -0.0829729 6.99897
710 237 3 0.41 4.63032 -0.145762 8.62489
711 237 5 -0.82 4.37402 0.501555 7.86118
712 238 3 0.41 1.16586 9.03131 12.6345
713 238 3 0.41 2.16732 9.07946 11.4777
714 238 5 -0.82 2.05368 8.64789 12.4086
715 239 3 0.41 3.73015 6.29457 -3.09529
716 239 3 0.41 2.15258 6.07643 -3.3687
717 239 5 -0.82 3.05156 5.76144 -3.59743
718 240 3 0.41 3.64789 9.45925 -18.0396
719 240 3 0.41 2.92594 9.03617 -19.3992
720 240 5 -0.82 3.62627 8.73276 -18.7328
721 241 3 0.41 6.98135 1.58255 2.20189
722 241 3 0.41 8.00329 0.483351 1.39135
723 241 5 -0.82 7.59663 1.44172 1.40516
724 242 3 0.41 2.07466 5.42557 0.597581
725 242 3 0.41 2.45904 4.73241 -0.769371
726 242 5 -0.82 1.8099 5.39127 -0.361647
727 243 3 0.41 5.87525 2.31933 -19.7786
728 243 3 0.41 5.15834 1.50874 -18.7182
729 243 5 -0.82 4.90988 2.12004 -19.529
730 244 3 0.41 1.96662 4.54721 22.5592
731 244 3 0.41 2.01616 4.68557 20.9767
732 244 5 -0.82 2.46928 5.04307 21.8047
733 245 3 0.41 6.47093 2.13937 -22.0013
734 245 3 0.41 7.02514 0.964433 -20.9211
735 245 5 -0.82 6.54277 1.14113 -21.8302
736 246 3 0.41 10.1502 0.74844 10.9759
737 246 3 0.41 8.86867 1.84158 10.8516
738 246 5 -0.82 9.1678 0.936779 11.2028
739 247 3 0.41 4.25758 6.89254 22.4244
740 247 3 0.41 5.62717 7.38619 22.7903
741 247 5 -0.82 5.15806 7.01247 21.9925
742 248 3 0.41 -0.255839 1.89568 10.302
743 248 3 0.41 0.376968 2.88846 11.4021
744 248 5 -0.82 0.502335 2.00741 10.9757
745 249 3 0.41 3.92447 2.93396 -16.2113
746 249 3 0.41 3.00344 2.98263 -14.8939
747 249 5 -0.82 3.35516 2.34424 -15.6134
748 250 3 0.41 4.70658 1.61608 22.3103
749 250 3 0.41 5.73259 2.04458 21.1587
750 250 5 -0.82 5.66075 1.53699 22.0411
751 251 3 0.41 12.0279 0.859856 21.8129
752 251 3 0.41 12.065 -0.280403 22.7535