ITEM: TIMESTEP
65000
ITEM: NUMBER OF ATOMS
1360
ITEM: BOX BOUNDS pp pp pp
-1.5000000000000000e+00 1.2500000000000000e+01
-1.5000000000000000e+00 1.2500000000000000e+01
-2.7500000000000000e+01 2.7500000000000000e+01
ITEM: ATOMS id mol type q x y z
1 1 3 0.41 2.27411 0.784197 4.2211
2 1 3 0.41 2.04866 -0.418178 5.23057
3 1 5 -0.82 1.50167 0.20082 4.60025
4 2 3 0.41 3.77367 9.97114 -12.4756
5 2 3 0.41 3.2248 10.4866 -11.0647
6 2 5 -0.82 3.77551 9.77528 -11.5211
7 3 3 0.41 1.08281 -0.252826 11.5385
8 3 3 0.41 -0.482611 0.0395812 11.2188
9 3 5 -0.82 0.142328 -0.558538 11.804
10 4 3 0.41 3.89037 7.39829 -13.9181
11 4 3 0.41 2.85868 7.37873 -15.2364
12 4 5 -0.82 3.79659 7.58534 -14.9366
13 5 3 0.41 3.2707 6.82588 -9.2788
14 5 3 0.41 2.77565 5.48982 -10.1436
15 5 5 -0.82 2.80925 6.47667 -10.1211
16 6 3 0.41 1.43052 10.232 -13.8447
17 6 3 0.41 1.39653 8.84563 -12.8884
18 6 5 -0.82 1.25562 9.8524 -12.8786
19 7 3 0.41 3.06587 5.53495 -21.9459
20 7 3 0.41 4.17252 4.66473 -21.2272
21 7 5 -0.82 4.10628 5.41786 -21.9209
22 8 3 0.41 11.9008 4.45328 14.1382
23 8 3 0.41 -1.21187 5.62251 14.6948
24 8 5 -0.82 -1.24104 4.60077 14.5596
25 9 3 0.41 -1.18932 -0.0356717 -11.5624
26 9 3 0.41 0.15852 0.35403 -10.9845
27 9 5 -0.82 -0.186155 0.00329444 -11.8415
28 10 3 0.41 3.73947 10.1064 -5.24465
29 10 3 0.41 3.03903 10.2251 -3.92761
30 10 5 -0.82 2.95154 10.5848 -4.89092
31 11 3 0.41 2.09152 -0.837305 -6.07187
32 11 3 0.41 2.84556 12.1862 -5.04053
33 11 5 -0.82 2.75471 -0.804389 -5.33023
34 12 3 0.41 7.2891 10.952 -15.5973
35 12 3 0.41 6.22154 10.4213 -16.6246
36 12 5 -0.82 6.71608 11.3004 -16.3644
37 13 3 0.41 -0.350803 11.9806 12.6865
38 13 3 0.41 -0.729874 10.8704 13.781
39 13 5 -0.82 -0.746651 11.0581 12.7588
40 14 3 0.41 5.77814 -1.17425 -15.5913
41 14 3 0.41 4.40653 -0.721596 -14.7356
42 14 5 -0.82 5.07748 -0.434038 -15.5013
43 15 3 0.41 3.50072 4.13512 11.7862
44 15 3 0.41 4.61801 3.13519 12.2769
45 15 5 -0.82 3.69773 3.39432 12.4974
46 16 3 0.41 3.44828 11.8268 19.6055
47 16 3 0.41 2.57951 10.7732 20.4749
48 16 5 -0.82 3.20374 10.8497 19.6756
49 17 3 0.41 4.60457 1.84027 21.7862
50 17 3 0.41 5.351 1.9653 23.2667
51 17 5 -0.82 5.4716 1.9308 22.2553
52 18 3 0.41 11.5443 11.7078 -18.6701
53 18 3 0.41 11.4775 11.1971 -17.0639
54 18 5 -0.82 11.8766 10.9869 -18.0199
55 19 3 0.41 9.54807 4.37547 7.10772
56 19 3 0.41 8.52568 5.23153 8.15796
57 19 5 -0.82 8.95321 5.22516 7.25394
58 20 3 0.41 9.58827 7.20345 -3.29119
59 20 3 0.41 10.4344 7.3078 -1.99749
60 20 5 -0.82 10.4889 6.95251 -2.95689
61 21 3 0.41 9.04883 4.18932 22.0036
62 21 3 0.41 9.96867 4.84271 23.0641
63 21 5 -0.82 9.90548 4.63474 22.1079
64 22 3 0.41 8.87653 3.56851 -17.0558
65 22 3 0.41 10.0773 4.59791 -17.0234
66 22 5 -0.82 9.57823 3.95354 -17.6269
67 23 3 0.41 6.70624 11.5675 -22.2156
68 23 3 0.41 5.57605 10.4457 -21.8842
69 23 5 -0.82 6.57188 10.5491 -22.1889
70 24 3 0.41 2.89774 8.53176 -8.18123
71 24 3 0.41 3.18387 7.27461 -7.10093
72 24 5 -0.82 3.58272 7.78647 -7.88207
73 25 3 0.41 2.31438 4.35609 -12.8897
74 25 3 0.41 2.2545 5.87182 -13.2415
75 25 5 -0.82 2.54917 4.99405 -13.6487
76 26 3 0.41 10.5636 -0.158661 -11.0671
77 26 3 0.41 11.3563 -0.374637 -9.69895
78 26 5 -0.82 11.4671 -0.433823 -10.6983
79 27 3 0.41 1.80387 -1.32689 -17.6614
80 27 3 0.41 2.81262 -0.621133 -16.773
81 27 5 -0.82 2.83294 -1.26551 -17.5617
82 28 3 0.41 -1.01435 5.06274 -7.16499
83 28 3 0.41 -0.137748 5.97005 -8.31627
84 28 5 -0.82 -0.116667 5.35268 -7.51419
85 29 3 0.41 11.7788 12.1867 19.1688
86 29 3 0.41 11.4949 -1.14277 20.5925
87 29 5 -0.82 11.9416 -0.947221 19.7032
88 30 3 0.41 11.074 12.2259 9.13655
89 30 3 0.41 -1.44743 -1.20893 9.42646
90 30 5 -0.82 11.8139 12.1954 9.82255
91 31 3 0.41 9.95928 -1.08335 -19.5336
92 31 3 0.41 11.3003 -0.710273 -20.3304
93 31 5 -0.82 10.9236 -1.05133 -19.4535
94 32 3 0.41 0.633482 4.58475 -22.0199
95 32 3 0.41 0.963394 5.99871 -21.4326
96 32 5 -0.82 1.4127 5.094 -21.5208
97 33 3 0.41 10.2279 1.09715 -3.99744
98 33 3 0.41 10.3374 1.63431 -5.52599
99 33 5 -0.82 10.8863 1.20644 -4.76588
100 34 3 0.41 12.4927 7.55189 2.31867
101 34 3 0.41 12.204 7.39632 3.94525
102 34 5 -0.82 11.8156 7.21025 2.98831
103 35 3 0.41 11.5456 6.33693 12.1698
104 35 3 0.41 -1.03192 6.92646 12.5715
105 35 5 -0.82 12.3662 6.74901 11.7519
106 36 3 0.41 4.73944 3.61309 -0.294902
107 36 3 0.41 5.7051 4.6382 -1.04956
108 36 5 -0.82 4.87962 4.5922 -0.503352
109 37 3 0.41 -0.882376 9.24439 19.7528
110 37 3 0.41 -1.24925 9.94071 21.0549
111 37 5 -0.82 -0.524609 10.0504 20.2895
112 38 3 0.41 8.14073 10.233 -5.15454
113 38 3 0.41 8.94593 10.661 -3.87277
114 38 5 -0.82 8.32144 11.0499 -4.56132
115 39 3 0.41 7.76481 9.53091 -13.9799
116 39 3 0.41 8.86405 10.7134 -13.6743
117 39 5 -0.82 8.10147 10.4341 -14.3215
118 40 3 0.41 4.21118 11.9736 -17.9061
119 40 3 0.41 5.66464 12.1914 -18.676
120 40 5 -0.82 4.87886 11.5562 -18.6065
121 41 3 0.41 5.42164 2.146 -17.418
122 41 3 0.41 5.03139 0.650337 -17.1391
123 41 5 -0.82 4.72662 1.44098 -17.7179
124 42 3 0.41 6.73602 10.1422 4.90761
125 42 3 0.41 5.19914 9.76077 5.58795
126 42 5 -0.82 5.72122 10.0941 4.73726
127 43 3 0.41 12.2709 -0.495457 16.5232
128 43 3 0.41 11.2578 0.117012 15.6146
129 43 5 -0.82 11.2864 -0.541071 16.4106
130 44 3 0.41 3.3806 4.62204 -15.2645
131 44 3 0.41 4.10118 5.51582 -16.4431
132 44 5 -0.82 4.11421 4.57142 -16.0234
133 45 3 0.41 9.34964 3.04552 2.81568
134 45 3 0.41 8.35264 2.42403 3.94196
135 45 5 -0.82 8.95167 3.2538 3.72098
136 46 3 0.41 -1.41075 3.03007 11.7182
137 46 3 0.41 11.191 3.16556 12.3531
138 46 5 -0.82 11.9311 2.48122 12.2749
139 47 3 0.41 1.85132 10.481 -0.02214
140 47 3 0.41 2.29475 10.8633 -1.55408
141 47 5 -0.82 1.54169 10.8758 -0.881793
142 48 3 0.41 -1.04943 2.37625 18.6792
143 48 3 0.41 11.654 2.03498 19.6131
144 48 5 -0.82 -1.33869 1.78546 19.4881
145 49 3 0.41 9.6986 -0.970365 -5.79752
146 49 3 0.41 11.1639 12.4602 -5.44043
147 49 5 -0.82 10.5329 -1.35044 -6.23435
148 50 3 0.41 9.51396 -1.37844 21.2999
149 50 3 0.41 10.2176 -1.20295 22.6812
150 50 5 -0.82 10.2053 12.1862 21.8991
151 51 3 0.41 2.53606 -0.481228 9.00814
152 51 3 0.41 3.0643 -0.4095 10.4832
153 51 5 -0.82 3.39706 -0.557275 9.55977
154 52 3 0.41 -1.49626 4.51569 -13.4197
155 52 3 0.41 -0.463861 4.31273 -12.2649
156 52 5 -0.82 -0.527242 4.29041 -13.27
157 53 3 0.41 0.0534686 5.23609 2.18203
158 53 3 0.41 1.54151 5.22682 2.50147
159 53 5 -0.82 0.890289 5.74375 1.92107
160 54 3 0.41 8.33145 10.1731 12.4239
161 54 3 0.41 8.1333 11.1014 13.8324
162 54 5 -0.82 7.9407 11.0216 12.8663
163 55 3 0.41 1.6354 9.05422 14.053
164 55 3 0.41 2.55604 8.12719 14.9915
165 55 5 -0.82 1.5966 8.34066 14.7865
166 56 3 0.41 -0.705503 3.90824 7.95147
167 56 3 0.41 0.0506918 2.5348 8.20505
168 56 5 -0.82 0.116449 3.53785 8.43637
169 57 3 0.41 7.98916 -1.4394 -17.3503
170 57 3 0.41 8.22608 -0.17855 -16.5521
171 57 5 -0.82 8.74724 -0.889544 -17.0531
172 58 3 0.41 1.57363 11.7109 -19.9528
173 58 3 0.41 2.98202 11.925 -19.3974
174 58 5 -0.82 2.52087 11.8083 -20.2769
175 59 3 0.41 -0.355726 6.6613 5.69266
176 59 3 0.41 -0.936679 8.02487 5.93811
177 59 5 -0.82 -1.26746 7.23734 5.43803
178 60 3 0.41 6.60169 6.66558 4.46831
179 60 3 0.41 5.43733 6.73893 3.41544
180 60 5 -0.82 5.6881 7.06141 4.32741
181 61 3 0.41 8.65371 3.30019 14.1128
182 61 3 0.41 8.1077 3.07355 15.5825
183 61 5 -0.82 8.07736 2.66142 14.6312
184 62 3 0.41 1.96593 5.51507 5.88285
185 62 3 0.41 0.775881 4.86798 6.59535
186 62 5 -0.82 0.951444 5.66018 6.00324
187 63 3 0.41 4.49153 8.23961 20.7205
188 63 3 0.41 4.20516 9.42516 19.7364
189 63 5 -0.82 4.72643 8.54241 19.7609
190 64 3 0.41 11.5751 11.1924 6.39307
191 64 3 0.41 10.4152 11.455 7.45527
192 64 5 -0.82 10.7111 10.7952 6.72304
193 65 3 0.41 -1.21469 3.31658 -2.62121
194 65 3 0.41 -0.0630821 3.80145 -3.72314
195 65 5 -0.82 -0.276906 3.09466 -3.02409
196 66 3 0.41 -0.301694 2.90741 -0.502387
197 66 3 0.41 12.3868 3.41998 0.171522
198 66 5 -0.82 -1.21425 2.58852 -0.263932
199 67 3 0.41 8.38269 11.5719 11.2762
200 67 3 0.41 9.75857 12.0539 10.8035
201 67 5 -0.82 8.90817 11.6582 10.4178
202 68 3 0.41 6.90354 6.42849 18.0478
203 68 3 0.41 8.17494 7.17982 17.7909
204 68 5 -0.82 7.66219 6.39118 17.4098
205 69 3 0.41 11.5963 1.19117 -20.8713
206 69 3 0.41 -1.07363 0.988039 -21.826
207 69 5 -0.82 12.0812 0.588551 -21.5399
208 70 3 0.41 8.74912 5.74332 -19.807
209 70 3 0.41 8.77774 4.34047 -18.9706
210 70 5 -0.82 8.25354 4.87535 -19.674
211 71 3 0.41 3.18055 3.35437 3.32485
212 71 3 0.41 3.24399 4.69503 4.21851
213 71 5 -0.82 2.82362 4.30786 3.33578
214 72 3 0.41 3.19639 10.245 18.1459
215 72 3 0.41 2.92388 8.84117 17.3815
216 72 5 -0.82 2.82395 9.80896 17.3046
217 73 3 0.41 -1.18912 -1.27882 -8.52952
218 73 3 0.41 -0.0586491 11.8864 -9.34739
219 73 5 -0.82 -0.266844 12.2848 -8.43163
220 74 3 0.41 7.59262 7.68477 1.4826
221 74 3 0.41 6.73823 6.52445 1.2725
222 74 5 -0.82 6.85355 7.44897 0.866616
223 75 3 0.41 12.0782 4.83415 -5.29543
224 75 3 0.41 11.4713 3.3885 -5.24969
225 75 5 -0.82 12.087 3.96355 -5.8154
226 76 3 0.41 6.86957 0.806198 -15.3635
227 76 3 0.41 7.88447 2.05174 -15.9212
228 76 5 -0.82 7.36933 1.2273 -16.1725
229 77 3 0.41 12.1545 10.694 14.9768
230 77 3 0.41 -1.22482 9.62529 15.8692
231 77 5 -0.82 -0.875074 10.3655 15.2139
232 78 3 0.41 -0.317823 8.14168 -9.37198
233 78 3 0.41 1.21358 7.61073 -9.45837
234 78 5 -0.82 0.244975 7.29875 -9.46583
235 79 3 0.41 -1.30253 -1.27296 5.26127
236 79 3 0.41 -0.784693 -0.922479 6.81127
237 79 5 -0.82 -1.04014 12.303 6.17651
238 80 3 0.41 1.27707 1.24563 -15.5584
239 80 3 0.41 2.76732 0.779841 -15.0687
240 80 5 -0.82 2.05087 0.586847 -15.7143
241 81 3 0.41 0.642263 12.1 -2.36159
242 81 3 0.41 1.05837 12.3465 -3.86205
243 81 5 -0.82 0.603307 -1.19878 -3.10665
244 82 3 0.41 4.58387 5.79205 1.40602
245 82 3 0.41 3.34248 5.88119 2.31018
246 82 5 -0.82 4.11592 6.43283 2.01937
247 83 3 0.41 11.1628 10.6028 -1.35123
248 83 3 0.41 12.1674 10.4857 -0.0513428
249 83 5 -0.82 12.124 10.7267 -1.05787
250 84 3 0.41 4.96813 -0.99123 3.79941
251 84 3 0.41 5.26798 11.401 3.71414
252 84 5 -0.82 5.08402 12.2378 3.15438
253 85 3 0.41 7.64065 10.6612 22.6974
254 85 3 0.41 6.28586 10.0819 22.1237
255 85 5 -0.82 7.29019 10.1735 21.8907
256 86 3 0.41 1.20369 5.3595 -19.8227
257 86 3 0.41 1.66007 5.0324 -18.3994
258 86 5 -0.82 0.8812 5.46153 -18.9009
259 87 3 0.41 9.59187 12.0253 0.996338
260 87 3 0.41 10.6442 -0.646195 0.923675
261 87 5 -0.82 9.71582 -1.01121 0.588231
262 88 3 0.41 -0.839128 4.70002 16.8839
263 88 3 0.41 11.8502 5.67898 16.7385
264 88 5 -0.82 -1.19821 5.5954 17.1158
265 89 3 0.41 10.8621 5.95716 -22.1015
266 89 3 0.41 9.31575 5.44457 -22.001
267 89 5 -0.82 10.2798 5.1105 -22.1747
268 90 3 0.41 10.1556 5.38316 -13.1814
269 90 3 0.41 10.8347 4.01621 -13.9726
270 90 5 -0.82 10.8492 4.68424 -13.1715
271 91 3 0.41 0.739696 12.1712 8.3084
272 91 3 0.41 1.56933 11.7674 7.09664
273 91 5 -0.82 1.25659 11.3864 7.97539
274 92 3 0.41 9.69731 0.523765 2.30102
275 92 3 0.41 10.6131 0.91686 3.65018
276 92 5 -0.82 9.73441 0.43738 3.33675
277 93 3 0.41 10.153 6.33464 9.79841
278 93 3 0.41 9.29714 7.33708 10.5935
279 93 5 -0.82 10.093 7.33771 10.0141
280 94 3 0.41 4.3363 1.58644 3.8047
281 94 3 0.41 3.63511 1.23608 2.37087
282 94 5 -0.82 3.44491 1.44576 3.34207
283 95 3 0.41 9.48022 0.192347 11.5455
284 95 3 0.41 9.69709 1.80225 11.87
285 95 5 -0.82 9.07517 1.13938 11.4772
286 96 3 0.41 4.26944 11.5723 12.0002
287 96 3 0.41 3.35134 -1.25774 12.6381
288 96 5 -0.82 3.31995 11.9252 12.0234
289 97 3 0.41 10.127 2.00462 17.2556
290 97 3 0.41 10.6422 3.59465 17.3588
291 97 5 -0.82 10.7459 2.74287 16.8479
292 98 3 0.41 7.3745 -0.396088 -19.2064
293 98 3 0.41 7.32265 -1.32819 -20.5191
294 98 5 -0.82 7.19605 -1.38142 -19.5135
295 99 3 0.41 12.1588 10.7488 -4.72555
296 99 3 0.41 11.1337 9.6932 -5.33336
297 99 5 -0.82 12.0924 9.71148 -4.90166
298 100 3 0.41 8.81715 10.2226 1.01708
299 100 3 0.41 10.2075 10.0621 1.78058
300 100 5 -0.82 9.80269 9.9817 0.830412
301 101 3 0.41 8.53476 6.04608 -5.96536
302 101 3 0.41 9.89537 5.93844 -6.70424
303 101 5 -0.82 8.96431 5.7086 -6.81197
304 102 3 0.41 10.1473 -0.430137 -22.0481
305 102 3 0.41 9.47262 0.830387 -21.7902
306 102 5 -0.82 9.25751 -0.15459 -21.6627
307 103 3 0.41 8.31735 -1.3825 15.5148
308 103 3 0.41 8.18909 11.4752 16.5995
309 103 5 -0.82 8.28312 11.5894 15.6175
310 104 3 0.41 12.2579 6.65681 -14.0469
311 104 3 0.41 -0.611788 5.61538 -14.2892
312 104 5 -0.82 -1.19032 6.29957 -14.7717
313 105 3 0.41 12.2482 0.974619 4.47309
314 105 3 0.41 -1.1552 2.30711 5.04765
315 105 5 -0.82 12.0031 1.96708 4.60325
316 106 3 0.41 2.74615 6.80276 -4.4669
317 106 3 0.41 4.09557 6.53051 -5.16582
318 106 5 -0.82 3.16503 6.89 -5.3857
319 107 3 0.41 3.5942 -1.28631 -7.6223
320 107 3 0.41 4.6693 11.6286 -7.47292
321 107 5 -0.82 3.7322 11.7341 -7.82344
322 108 3 0.41 0.625955 7.83648 -18.3907
323 108 3 0.41 -0.32955 8.20645 -19.7027
324 108 5 -0.82 -0.297013 8.09453 -18.676
325 109 3 0.41 5.4556 10.0577 -19.1998
326 109 3 0.41 7.03229 9.64499 -19.5822
327 109 5 -0.82 6.11435 9.30577 -19.449
328 110 3 0.41 9.06187 2.05393 -0.273438
329 110 3 0.41 10.7027 2.10788 -0.28136
330 110 5 -0.82 9.87629 2.2882 -0.828411
331 111 3 0.41 10.6085 6.60735 -9.48365
332 111 3 0.41 10.2297 7.2989 -10.8098
333 111 5 -0.82 10.7434 6.47969 -10.4461
334 112 3 0.41 -0.561048 3.63594 -21.2234
335 112 3 0.41 12.1463 4.09389 -22.2959
336 112 5 -0.82 -0.841559 4.06392 -22.161
337 113 3 0.41 3.99566 7.22744 15.5132
338 113 3 0.41 5.30456 8.00424 14.9477
339 113 5 -0.82 4.42314 7.56576 14.6578
340 114 3 0.41 3.4553 -0.0320192 -13.4241
341 114 3 0.41 3.12084 -1.33417 -12.5826
342 114 5 -0.82 3.60295 -1.03084 -13.4532
343 115 3 0.41 9.45362 8.74598 9.30746
344 115 3 0.41 8.821 10.3121 9.42142
345 115 5 -0.82 8.96787 9.48744 8.83331
346 116 3 0.41 10.266 9.43601 21.2211
347 116 3 0.41 8.63675 9.5511 21.0511
348 116 5 -0.82 9.4141 8.89226 20.9953
349 117 3 0.41 12.4824 10.2404 -13.3668
350 117 3 0.41 12.3702 9.43018 -14.7509
351 117 5 -0.82 12.0894 9.42608 -13.7777
352 118 3 0.41 5.45231 7.57139 0.182534
353 118 3 0.41 4.65968 8.77429 -0.415136
354 118 5 -0.82 4.60033 7.74205 -0.407539
355 119 3 0.41 6.38316 2.52764 -5.32774
356 119 3 0.41 6.57971 2.65157 -6.92062
357 119 5 -0.82 6.73001 2.03677 -6.16478
358 120 3 0.41 4.67725 12.2655 9.0987
359 120 3 0.41 5.21423 10.7916 9.53612
360 120 5 -0.82 5.50301 11.6659 9.13084
361 121 3 0.41 8.88041 6.10444 -16.1712
362 121 3 0.41 10.0038 6.51181 -15.004
363 121 5 -0.82 9.54469 5.70277 -15.4846
364 122 3 0.41 1.52831 3.47176 9.28326
365 122 3 0.41 2.96402 4.07161 9.73263
366 122 5 -0.82 2.4611 3.17202 9.55504
367 123 3 0.41 -1.29898 -0.204994 2.87741
368 123 3 0.41 -0.138921 -0.513037 4.06636
369 123 5 -0.82 -1.12625 -0.459019 3.87229
370 124 3 0.41 11.8622 6.93242 -6.90446
371 124 3 0.41 10.9186 7.81706 -7.90692
372 124 5 -0.82 11.3428 6.90775 -7.80699
373 125 3 0.41 0.163657 11.7718 -14.1147
374 125 3 0.41 -0.370585 -1.37577 -12.7544
375 125 5 -0.82 -0.601013 11.8691 -13.4049
376 126 3 0.41 -0.323115 2.80174 -13.6837
377 126 3 0.41 -0.188771 1.19556 -13.1433
378 126 5 -0.82 -0.227697 1.82064 -13.9915
379 127 3 0.41 4.41404 6.46376 17.5782
380 127 3 0.41 2.90296 6.40494 17.2611
381 127 5 -0.82 3.69152 7.08053 17.1971
382 128 3 0.41 10.3249 2.83638 5.40086
383 128 3 0.41 9.4754 2.14545 6.38629
384 128 5 -0.82 10.069 2.97064 6.33573
385 129 3 0.41 7.73526 4.57374 1.85548
386 129 3 0.41 6.53052 4.41325 2.88311
387 129 5 -0.82 6.85273 4.90965 2.04277
388 130 3 0.41 -0.150501 1.66644 -6.04412
389 130 3 0.41 -0.583188 3.09383 -6.38123
390 130 5 -0.82 -0.040408 2.37702 -6.79765
391 131 3 0.41 -0.72157 0.851258 -15.1466
392 131 3 0.41 -1.26599 -0.595279 -15.7595
393 131 5 -0.82 -0.942591 0.309353 -16.0346
394 132 3 0.41 1.80562 7.7384 -5.53255
395 132 3 0.41 1.3234 9.17123 -5.21087
396 132 5 -0.82 1.12624 8.41216 -5.80791
397 133 3 0.41 8.3909 -1.41839 5.22945
398 133 3 0.41 8.91713 -0.812182 3.86771
399 133 5 -0.82 8.39496 12.3186 4.22071
400 134 3 0.41 -1.48378 1.25663 -1.45944
401 134 3 0.41 -0.771291 -0.216233 -1.55789
402 134 5 -0.82 -1.39823 0.443124 -2.04214
403 135 3 0.41 9.57091 3.43852 -22.389
404 135 3 0.41 10.0737 2.46897 -21.1994
405 135 5 -0.82 9.48149 2.46489 -22.0468
406 136 3 0.41 6.36835 10.6661 12.1755
407 136 3 0.41 5.55213 9.36479 11.925
408 136 5 -0.82 5.36762 10.3648 12.0327
409 137 3 0.41 10.1875 9.55219 3.9258
410 137 3 0.41 11.6862 10.0972 3.91789
411 137 5 -0.82 10.8159 10.1641 3.42937
412 138 3 0.41 -0.614998 8.13254 17.9285
413 138 3 0.41 0.934393 8.08135 18.3543
414 138 5 -0.82 0.266267 8.54285 17.7216
415 139 3 0.41 11.5146 9.34789 23.0503
416 139 3 0.41 11.159 10.6844 22.2553
417 139 5 -0.82 11.6312 9.83253 22.1689
418 140 3 0.41 4.4745 6.81044 -2.0093
419 140 3 0.41 5.69559 6.53752 -3.02954
420 140 5 -0.82 4.6816 6.66982 -2.98698
421 141 3 0.41 3.36826 0.991655 -19.0319
422 141 3 0.41 2.01688 0.288487 -19.3122
423 141 5 -0.82 2.66453 0.898265 -19.7837
424 142 3 0.41 -1.33687 7.93697 -5.34209
425 142 3 0.41 11.689 7.22061 -4.34651
426 142 5 -0.82 12.1943 7.06258 -5.18447
427 143 3 0.41 7.70662 6.37456 15.2798
428 143 3 0.41 7.99893 5.53115 13.9619
429 143 5 -0.82 7.423 6.32309 14.3281
430 144 3 0.41 2.23945 0.467136 -8.98131
431 144 3 0.41 3.07542 1.19765 -10.2078
432 144 5 -0.82 2.65755 0.332042 -9.87944
433 145 3 0.41 9.26034 3.33089 -5.60025
434 145 3 0.41 8.46793 2.29288 -6.34608
435 145 5 -0.82 9.3637 2.73834 -6.42697
436 146 3 0.41 9.53182 2.52328 -8.28182
437 146 3 0.41 10.2861 2.16727 -9.71848
438 146 5 -0.82 9.82079 1.75027 -8.91959
439 147 3 0.41 12.1136 3.53919 -8.14711
440 147 3 0.41 11.034 4.58852 -7.9383
441 147 5 -0.82 11.512 4.13263 -8.68782
442 148 3 0.41 1.72692 -0.782933 20.1312
443 148 3 0.41 1.88861 0.727622 19.5156
444 148 5 -0.82 1.26782 0.0858175 20.0164
445 149 3 0.41 1.45496 4.40595 0.834543
446 149 3 0.41 2.42312 3.12427 0.370786
447 149 5 -0.82 1.53501 3.61411 0.210254
448 150 3 0.41 1.43139 9.95458 -9.39591
449 150 3 0.41 2.64604 10.4957 -8.55353
450 150 5 -0.82 2.20219 9.62015 -8.87635
451 151 3 0.41 0.468645 6.27627 9.53485
452 151 3 0.41 1.55991 5.9509 10.4736
453 151 5 -0.82 1.44459 6.00868 9.50012
454 152 3 0.41 8.28532 9.22478 4.17119
455 152 3 0.41 8.83669 10.7608 4.41848
456 152 5 -0.82 8.57016 9.88216 4.90406
457 153 3 0.41 12.3368 5.71294 8.24175
458 153 3 0.41 12.2382 5.67329 9.83176
459 153 5 -0.82 -1.19939 6.12959 9.0839
460 154 3 0.41 5.48419 4.17795 -16.9348
461 154 3 0.41 6.36761 4.10825 -18.2232
462 154 5 -0.82 6.30393 3.75281 -17.2761
463 155 3 0.41 2.50636 -1.18486 16.8936
464 155 3 0.41 3.09363 0.330933 17.0786
465 155 5 -0.82 2.95965 -0.556394 17.5153
466 156 3 0.41 2.82767 8.69499 -20.1996
467 156 3 0.41 4.31879 8.53116 -19.6635
468 156 5 -0.82 3.38018 8.59127 -19.3309
469 157 3 0.41 3.86099 2.01867 15.8297
470 157 3 0.41 5.28662 2.66637 15.1453
471 157 5 -0.82 4.65689 1.7789 15.1664
472 158 3 0.41 2.54935 -1.24833 -10.4613
473 158 3 0.41 1.39082 11.6457 -10.6762
474 158 5 -0.82 2.25894 12.0318 -11.0892
475 159 3 0.41 -0.96249 10.4073 -10.7388
476 159 3 0.41 0.347478 10.6988 -11.594
477 159 5 -0.82 0.0282671 10.6839 -10.6015
478 160 3 0.41 7.67406 11.5369 18.587
479 160 3 0.41 8.96515 12.2983 18.8967
480 160 5 -0.82 8.65682 11.5376 18.2905
481 161 3 0.41 11.4063 0.699807 -16.6687
482 161 3 0.41 9.85864 0.327489 -17.185
483 161 5 -0.82 10.4872 1.06365 -16.9908
484 162 3 0.41 11.7913 9.54724 -8.21338
485 162 3 0.41 11.0898 9.85217 -9.71733
486 162 5 -0.82 11.0205 9.32546 -8.84763
487 163 3 0.41 2.27786 12.117 -14.5989
488 163 3 0.41 2.33028 10.8702 -15.6108
489 163 5 -0.82 1.69659 11.4615 -15.0981
490 164 3 0.41 5.1737 8.04766 -7.31168
491 164 3 0.41 5.91828 9.03012 -6.29115
492 164 5 -0.82 6.06036 8.59424 -7.21583
493 165 3 0.41 1.78692 9.5431 22.5952
494 165 3 0.41 0.766875 10.0128 21.5558
495 165 5 -0.82 1.6235 10.3064 21.9842
496 166 3 0.41 11.3751 2.79157 2.85601
497 166 3 0.41 10.9536 3.78762 1.58734
498 166 5 -0.82 10.8464 2.8268 2.00307
499 167 3 0.41 4.15951 7.24082 -11.629
500 167 3 0.41 4.62322 5.87431 -12.3642
501 167 5 -0.82 4.57244 6.88818 -12.4746
502 168 3 0.41 1.23403 1.18573 -7.39652
503 168 3 0.41 0.697349 -0.390754 -7.49269
504 168 5 -0.82 1.49805 0.216133 -7.50315
505 169 3 0.41 1.58037 9.90825 4.51501
506 169 3 0.41 3.12161 10.2729 3.96411
507 169 5 -0.82 2.22973 10.6142 4.24257
508 170 3 0.41 11.6807 1.40194 9.05664
509 170 3 0.41 11.2923 1.87769 10.5501
510 170 5 -0.82 11.1184 2.09395 9.59139
511 171 3 0.41 11.3689 9.61725 7.63347
512 171 3 0.41 -1.16186 8.88466 7.88381
513 171 5 -0.82 11.8946 9.01265 8.28032
514 172 3 0.41 10.4982 11.0835 17.9088
515 172 3 0.41 11.4831 10.147 18.7276
516 172 5 -0.82 11.4904 10.9604 18.1335
517 173 3 0.41 9.44043 -0.138699 8.69218
518 173 3 0.41 9.70138 -0.121087 7.12084
519 173 5 -0.82 10.0976 -0.506605 8.0012
520 174 3 0.41 11.6794 7.14079 19.8579
521 174 3 0.41 10.8514 8.20808 19.0022
522 174 5 -0.82 11.8497 7.92797 19.2482
523 175 3 0.41 11.7429 4.82113 6.11251
524 175 3 0.41 11.551 3.87575 7.37247
525 175 5 -0.82 12.1673 4.65772 7.02264
526 176 3 0.41 11.0159 5.3696 -2.5769
527 176 3 0.41 10.6538 3.89119 -1.80368
528 176 5 -0.82 11.3948 4.49597 -2.19941
529 177 3 0.41 11.5891 1.73338 13.6753
530 177 3 0.41 10.8494 2.11108 15.0983
531 177 5 -0.82 11.1986 1.33064 14.5547
532 178 3 0.41 11.6251 11.7254 -11.1312
533 178 3 0.41 10.3699 10.8932 -11.3871
534 178 5 -0.82 11.2848 10.8004 -11.0386
535 179 3 0.41 3.58818 10.9457 -21.1441
536 179 3 0.41 3.02777 9.75519 -21.8187
537 179 5 -0.82 3.90483 10.2108 -21.8306
538 180 3 0.41 4.47206 8.27567 2.39287
539 180 3 0.41 5.15697 9.52833 3.32641
540 180 5 -0.82 4.61181 9.29218 2.45963
541 181 3 0.41 8.04722 -1.34892 -4.86534
542 181 3 0.41 8.49787 0.236238 -4.52725
543 181 5 -0.82 8.31364 -0.439833 -5.2725
544 182 3 0.41 -0.249663 5.97286 -10.5357
545 182 3 0.41 0.432809 4.55167 -10.8134
546 182 5 -0.82 -0.482665 4.98816 -10.7404
547 183 3 0.41 1.7292 8.29962 -16.3779
548 183 3 0.41 0.415076 8.0018 -15.5462
549 183 5 -0.82 1.19297 7.5581 -15.9855
550 184 3 0.41 3.87082 7.63206 12.6168
551 184 3 0.41 2.40286 8.45645 12.3372
552 184 5 -0.82 3.01152 7.66188 12.0457
553 185 3 0.41 2.08164 7.30424 -11.6616
554 185 3 0.41 0.606094 7.23856 -12.39
555 185 5 -0.82 1.62579 7.24485 -12.5815
556 186 3 0.41 0.451892 4.9887 -5.76396
557 186 3 0.41 0.945957 5.6838 -4.43939
558 186 5 -0.82 0.813432 4.79301 -4.87008
559 187 3 0.41 5.70967 0.991407 -1.45131
560 187 3 0.41 5.96371 0.316755 -2.95912
561 187 5 -0.82 6.34926 0.40495 -2.01683
562 188 3 0.41 3.66636 -0.932808 -21.2681
563 188 3 0.41 4.97313 -0.868518 -22.3879
564 188 5 -0.82 3.96908 -0.777733 -22.2147
565 189 3 0.41 6.02304 7.01934 13.0835
566 189 3 0.41 6.13178 6.67064 11.621
567 189 5 -0.82 5.65885 7.29039 12.1767
568 190 3 0.41 4.85436 10.579 13.6497
569 190 3 0.41 4.99288 11.7219 14.6583
570 190 5 -0.82 4.4528 10.9123 14.5076
571 191 3 0.41 1.82827 5.55136 16.0312
572 191 3 0.41 0.575946 5.8609 17.0371
573 191 5 -0.82 1.55352 5.54453 17.0151
574 192 3 0.41 6.72577 11.1131 20.6176
575 192 3 0.41 5.62288 12.0061 19.7796
576 192 5 -0.82 6.3761 11.3233 19.612
577 193 3 0.41 2.19895 2.95453 18.9468
578 193 3 0.41 3.51363 2.52143 18.2249
579 193 5 -0.82 2.86182 2.149 18.8888
580 194 3 0.41 1.36819 12.4442 14.8954
581 194 3 0.41 2.808 11.7478 15.1977
582 194 5 -0.82 1.85932 11.6528 15.4312
583 195 3 0.41 3.20219 5.54827 14.2337
584 195 3 0.41 2.27916 4.27197 14.2694
585 195 5 -0.82 2.30128 5.23947 14.5906
586 196 3 0.41 11.7423 11.2645 -21.8838
587 196 3 0.41 10.2422 10.8454 -22.1418
588 196 5 -0.82 10.8588 11.6583 -22.2766
589 197 3 0.41 10.9729 7.55564 5.53703
590 197 3 0.41 9.96447 6.65976 6.41854
591 197 5 -0.82 10.0976 7.5808 6.05914
592 198 3 0.41 12.4933 2.27289 -10.4952
593 198 3 0.41 11.8281 2.2424 -12.0013
594 198 5 -0.82 11.6875 2.57224 -11.0459
595 199 3 0.41 5.57511 -1.10265 -4.0365
596 199 3 0.41 4.56853 -0.157924 -4.88108
597 199 5 -0.82 5.55991 -0.24233 -4.63839
598 200 3 0.41 3.75683 10.2177 7.67695
599 200 3 0.41 3.5962 8.96773 6.6268
600 200 5 -0.82 4.25859 9.67956 6.94305
601 201 3 0.41 9.54701 6.21889 16.3243
602 201 3 0.41 10.556 5.29847 15.3017
603 201 5 -0.82 10.5118 5.98359 16.0579
604 202 3 0.41 7.3633 5.09403 -21.5223
605 202 3 0.41 5.86153 5.20721 -21.9878
606 202 5 -0.82 6.71029 4.64742 -22.1884
607 203 3 0.41 0.22507 4.29839 20.1049
608 203 3 0.41 1.33737 5.00796 19.0304
609 203 5 -0.82 1.20617 4.22822 19.7412
610 204 3 0.41 7.32595 10.8129 -11.8609
611 204 3 0.41 8.68569 11.6661 -11.138
612 204 5 -0.82 8.31773 10.8132 -11.5492
613 205 3 0.41 10.6445 1.9124 -14.2358
614 205 3 0.41 9.72361 1.52502 -13.0271
615 205 5 -0.82 10.6027 1.24848 -13.4253
616 206 3 0.41 6.10343 3.7474 5.40749
617 206 3 0.41 6.35162 2.80606 4.07721
618 206 5 -0.82 6.13119 3.74141 4.3639
619 207 3 0.41 2.62439 10.9487 10.6431
620 207 3 0.41 2.1873 10.6149 9.17772
621 207 5 -0.82 2.72309 10.237 9.88981
622 208 3 0.41 0.346068 11.961 -0.34888
623 208 3 0.41 -1.08959 12.1029 -0.933114
624 208 5 -0.82 -0.333525 -1.31101 -0.572915
625 209 3 0.41 10.7968 3.08098 -19.1991
626 209 3 0.41 10.9649 1.62042 -18.6564
627 209 5 -0.82 10.7388 2.11511 -19.5408
628 210 3 0.41 1.2134 8.86382 9.8327
629 210 3 0.41 0.262526 9.1285 11.0996
630 210 5 -0.82 0.305167 8.55612 10.259
631 211 3 0.41 7.6775 4.54656 17.2831
632 211 3 0.41 6.88221 3.15992 17.563
633 211 5 -0.82 7.65223 3.55681 17.0164
634 212 3 0.41 1.9071 1.98791 21.7763
635 212 3 0.41 2.93921 1.95433 20.5368
636 212 5 -0.82 2.90655 1.73192 21.5295
637 213 3 0.41 3.10477 9.41959 1.85158
638 213 3 0.41 1.58371 9.15362 2.20452
639 213 5 -0.82 2.17232 9.41542 1.43234
640 214 3 0.41 -0.334746 -0.418882 -5.49629
641 214 3 0.41 12.485 0.64914 -4.96929
642 214 5 -0.82 -0.500053 0.461062 -5.02725
643 215 3 0.41 8.10816 11.1323 -18.7445
644 215 3 0.41 9.13491 9.98677 -18.1315
645 215 5 -0.82 8.61702 10.2575 -18.9518
646 216 3 0.41 5.75625 5.07519 7.63279
647 216 3 0.41 5.11162 6.48285 8.31706
648 216 5 -0.82 5.46255 6.04003 7.47162
649 217 3 0.41 8.52651 1.79832 -19.3697
650 217 3 0.41 7.63771 1.36008 -18.1246
651 217 5 -0.82 7.64076 1.37581 -19.1473
652 218 3 0.41 7.73188 0.642132 5.95632
653 218 3 0.41 8.86788 0.505213 4.95674
654 218 5 -0.82 8.74063 0.574997 5.95551
655 219 3 0.41 6.36341 9.64739 -12.7789
656 219 3 0.41 5.94902 8.0572 -12.591
657 219 5 -0.82 6.63649 8.65734 -12.9122
658 220 3 0.41 0.0417117 7.58054 14.6736
659 220 3 0.41 -1.3107 7.94989 14.9837
660 220 5 -0.82 -0.8881 7.2814 14.3776
661 221 3 0.41 4.87928 6.98624 -21.9179
662 221 3 0.41 5.02328 8.55623 -22.2576
663 221 5 -0.82 5.57695 7.70084 -22.0665
664 222 3 0.41 6.56139 2.73581 -21.8181
665 222 3 0.41 6.98746 1.67417 -20.6949
666 222 5 -0.82 6.34995 1.80263 -21.5233
667 223 3 0.41 5.44528 4.97211 -7.66254
668 223 3 0.41 4.03235 4.48033 -8.30921
669 223 5 -0.82 4.80869 5.102 -8.47266
670 224 3 0.41 8.50611 6.87747 3.59646
671 224 3 0.41 9.75622 7.361 2.79098
672 224 5 -0.82 8.77834 7.56243 2.87331
673 225 3 0.41 7.58328 -1.38715 0.125311
674 225 3 0.41 6.26684 -0.684538 -0.360396
675 225 5 -0.82 6.72434 -1.00382 0.492088
676 226 3 0.41 9.77938 3.70197 19.3913
677 226 3 0.41 9.45609 5.40237 19.5641
678 226 5 -0.82 9.91661 4.67255 19.0121
679 227 3 0.41 8.93829 7.48768 20.3556
680 227 3 0.41 7.59746 6.76669 20.7846
681 227 5 -0.82 8.48172 6.54914 20.2529
682 228 3 0.41 4.82589 1.1173 -12.3933
683 228 3 0.41 5.51844 0.22058 -11.1785
684 228 5 -0.82 5.72926 0.879517 -11.9625
685 229 3 0.41 8.60718 7.88874 -21.7896
686 229 3 0.41 7.15004 7.23737 -22.1818
687 229 5 -0.82 8.04919 7.02701 -21.6752
688 230 3 0.41 6.94161 0.775215 2.64371
689 230 3 0.41 6.72671 0.463838 4.1989
690 230 5 -0.82 6.98408 1.22374 3.5566
691 231 3 0.41 4.55861 10.4706 -15.3865
692 231 3 0.41 4.01906 9.3332 -14.5592
693 231 5 -0.82 4.29507 10.2758 -14.4246
694 232 3 0.41 7.73018 1.23675 -2.91376
695 232 3 0.41 9.11603 1.73316 -2.39691
696 232 5 -0.82 8.61225 1.53527 -3.25703
697 233 3 0.41 4.29619 12.2855 1.53874
698 233 3 0.41 3.91496 -0.43409 0.552336
699 233 5 -0.82 3.7427 -1.44759 0.722618
700 234 3 0.41 4.67793 0.788124 9.58331
701 234 3 0.41 4.25549 2.35409 9.88235
702 234 5 -0.82 5.07012 1.70881 9.79512
703 235 3 0.41 6.83694 -0.492785 8.53785
704 235 3 0.41 8.0409 -1.25048 9.26891
705 235 5 -0.82 7.65894 -0.335338 9.10326
706 236 3 0.41 0.0497367 8.08872 0.227702
707 236 3 0.41 -0.806274 9.04289 1.24569
708 236 5 -0.82 -0.777153 8.13097 0.826112
709 237 3 0.41 2.9933 2.62124 7.97605
710 237 3 0.41 3.68845 1.56682 6.9505
711 237 5 -0.82 3.34713 2.57299 7.02173
712 238 3 0.41 2.38714 10.6918 12.6768
713 238 3 0.41 0.826576 10.6216 12.789
714 238 5 -0.82 1.63907 9.99798 12.6933
715 239 3 0.41 1.55814 6.52161 -2.46895
716 239 3 0.41 1.00542 7.85002 -3.22009
717 239 5 -0.82 1.47472 6.96466 -3.38342
718 240 3 0.41 1.5019 10.3968 -17.7055
719 240 3 0.41 2.66664 9.35734 -18.093
720 240 5 -0.82 2.15488 9.71499 -17.3048
721 241 3 0.41 6.78432 1.8871 0.53444
722 241 3 0.41 7.61674 0.523277 0.568298
723 241 5 -0.82 7.67445 1.55015 0.44272
724 242 3 0.41 1.97065 4.66697 -0.854688
725 242 3 0.41 3.42401 5.30482 -1.00721
726 242 5 -0.82 2.44868 5.48207 -1.23294
727 243 3 0.41 4.11268 2.97478 -19.6204
728 243 3 0.41 3.96554 4.38768 -18.9191
729 243 5 -0.82 4.36816 3.91856 -19.744
730 244 3 0.41 5.1869 5.55712 19.8328
731 244 3 0.41 4.82749 7.0227 19.07
732 244 5 -0.82 5.13908 6.04367 18.9518
733 245 3 0.41 6.3137 0.177335 -21.9849
734 245 3 0.41 7.69104 -0.561772 -22.3023
735 245 5 -0.82 6.69693 -0.78049 -22.2409
736 246 3 0.41 7.14794 2.70581 13.1077
737 246 3 0.41 7.07712 3.60166 11.6656
738 246 5 -0.82 6.71385 2.83453 12.2048
739 247 3 0.41 7.09707 7.14055 22.9917
740 247 3 0.41 6.80096 8.13991 21.8813
741 247 5 -0.82 6.66964 7.20892 22.0776
742 248 3 0.41 -0.00348169 3.75082 10.0508
743 248 3 0.41 0.381511 4.625 11.3479
744 248 5 -0.82 -0.0978763 3.77758 11.0901
745 249 3 0.41 1.00903 5.84618 -16.3549
746 249 3 0.41 1.36602 4.87547 -15.1529
747 249 5 -0.82 1.17545 4.8642 -16.1179
748 250 3 0.41 6.29042 4.14199 20.478
749 250 3 0.41 7.85697 4.42681 20.0402
750 250 5 -0.82 6.99255 3.97266 19.7646
751 251 3 0.41 11.6561 1.61444 22.9365
752 251 3 0.41 11.0668 1.69092 21.461
753 251 5 -0.82 11.6465 1.10977 22.0672