ITEM: TIMESTEP
55000
ITEM: NUMBER OF ATOMS
1360
ITEM: BOX BOUNDS pp pp pp
-1.5000000000000000e+00 1.2500000000000000e+01
-1.5000000000000000e+00 1.2500000000000000e+01
-2.7500000000000000e+01 2.7500000000000000e+01
ITEM: ATOMS id mol type q x y z
1 1 3 0.41 1.70365 0.225529 3.57414
2 1 3 0.41 1.37019 1.02731 2.28739
3 1 5 -0.82 1.23598 0.111393 2.68244
4 2 3 0.41 2.26258 11.8248 -9.97002
5 2 3 0.41 3.84387 11.8359 -9.6783
6 2 5 -0.82 3.14386 12.0118 -10.4045
7 3 3 0.41 10.4878 -0.103505 11.2392
8 3 3 0.41 11.4201 -1.1413 10.6695
9 3 5 -0.82 10.4931 -1.10568 11.0416
10 4 3 0.41 3.68502 5.38825 -13.6437
11 4 3 0.41 2.57926 4.89703 -14.7333
12 4 5 -0.82 3.25201 4.55656 -14.0752
13 5 3 0.41 1.97065 6.27932 -10.448
14 5 3 0.41 1.66788 5.31239 -9.19138
15 5 5 -0.82 1.8546 5.29672 -10.1633
16 6 3 0.41 -1.25363 5.23372 -13.6454
17 6 3 0.41 11.3904 5.66974 -14.5671
18 6 5 -0.82 12.34 5.35443 -14.5866
19 7 3 0.41 3.73757 5.15516 -21.0325
20 7 3 0.41 4.11309 6.37149 -22.0328
21 7 5 -0.82 3.57644 5.5561 -21.9532
22 8 3 0.41 11.8876 4.09947 14.3385
23 8 3 0.41 10.8581 2.97956 14.0335
24 8 5 -0.82 11.7638 3.08464 14.487
25 9 3 0.41 -0.91642 -1.48359 -12.6686
26 9 3 0.41 -0.951056 -0.529102 -11.3905
27 9 5 -0.82 12.4656 -0.910661 -12.0998
28 10 3 0.41 2.17079 11.8003 -0.975996
29 10 3 0.41 1.57094 12.2647 -2.3227
30 10 5 -0.82 2.40662 11.7772 -1.96795
31 11 3 0.41 3.41715 11.2899 -4.25772
32 11 3 0.41 2.73052 10.4224 -3.14469
33 11 5 -0.82 3.12653 10.3633 -4.10589
34 12 3 0.41 7.96261 8.45389 -13.0529
35 12 3 0.41 6.73651 7.86619 -13.9402
36 12 5 -0.82 7.68605 8.28707 -14.0044
37 13 3 0.41 -1.14286 10.6426 13.4894
38 13 3 0.41 -1.22242 11.9645 12.4791
39 13 5 -0.82 -0.929444 10.9726 12.5536
40 14 3 0.41 6.40682 9.64456 -15.7142
41 14 3 0.41 4.7875 9.82157 -16.2357
42 14 5 -0.82 5.71009 10.2045 -16.176
43 15 3 0.41 2.55822 -0.239083 13.1807
44 15 3 0.41 2.00095 1.25972 13.4062
45 15 5 -0.82 2.26174 0.571533 12.6812
46 16 3 0.41 4.07909 11.916 19.5999
47 16 3 0.41 5.26062 -0.891201 19.5072
48 16 5 -0.82 5.10026 12.0952 19.4898
49 17 3 0.41 6.67025 5.2672 20.5066
50 17 3 0.41 5.70031 4.92123 19.2694
51 17 5 -0.82 6.48031 5.54888 19.5261
52 18 3 0.41 10.6696 11.186 -18.2052
53 18 3 0.41 10.5438 9.76125 -17.4706
54 18 5 -0.82 10.4163 10.2544 -18.3312
55 19 3 0.41 10.5713 7.8225 5.26651
56 19 3 0.41 9.54863 7.50055 6.30241
57 19 5 -0.82 10.0168 8.28756 5.96974
58 20 3 0.41 -0.0361932 6.43341 -2.76073
59 20 3 0.41 12.4879 6.9215 -2.32388
60 20 5 -0.82 -1.02089 6.1429 -2.73143
61 21 3 0.41 6.53251 4.96818 23.004
62 21 3 0.41 6.29426 3.84276 21.7724
63 21 5 -0.82 6.73576 4.73179 21.9999
64 22 3 0.41 7.14338 0.929476 -16.2076
65 22 3 0.41 7.81864 -0.53627 -16.5219
66 22 5 -0.82 8.0363 0.473879 -16.4503
67 23 3 0.41 6.73418 -0.560364 -21.8461
68 23 3 0.41 7.35423 12.1333 -21.2741
69 23 5 -0.82 6.55156 12.4538 -21.8789
70 24 3 0.41 2.51547 7.43753 -7.69155
71 24 3 0.41 3.8793 7.01053 -8.13638
72 24 5 -0.82 3.09417 7.51938 -8.49678
73 25 3 0.41 0.232793 3.80906 -13.3272
74 25 3 0.41 0.165062 3.56556 -14.8636
75 25 5 -0.82 0.291122 3.02629 -14.0122
76 26 3 0.41 11.0087 8.92948 -9.30836
77 26 3 0.41 11.235 10.265 -10.0881
78 26 5 -0.82 11.5071 9.26684 -10.0992
79 27 3 0.41 2.94905 11.0398 -14.6306
80 27 3 0.41 3.06925 -1.3894 -14.2281
81 27 5 -0.82 2.8348 12.0193 -15.0073
82 28 3 0.41 -0.227796 4.77476 -8.44484
83 28 3 0.41 -0.083722 3.25754 -8.69119
84 28 5 -0.82 -0.731749 3.9484 -8.75382
85 29 3 0.41 12.3129 -0.844279 19.0665
86 29 3 0.41 -0.953852 12.0049 19.9831
87 29 5 -0.82 -0.809961 -1.16131 19.4089
88 30 3 0.41 9.97251 -1.31918 8.03167
89 30 3 0.41 11.4721 -0.868087 7.77664
90 30 5 -0.82 10.7094 -1.40526 7.30839
91 31 3 0.41 -0.160203 -0.759942 -20.0574
92 31 3 0.41 12.1982 -1.13268 -19.7955
93 31 5 -0.82 -1.00487 -1.12877 -20.4713
94 32 3 0.41 1.04137 4.03755 -21.4926
95 32 3 0.41 2.24724 4.66877 -22.2688
96 32 5 -0.82 1.72726 3.79656 -22.1916
97 33 3 0.41 10.7337 0.198682 -5.29845
98 33 3 0.41 11.6992 0.29975 -3.92415
99 33 5 -0.82 11.6107 0.557594 -4.93098
100 34 3 0.41 11.3178 8.15074 1.59655
101 34 3 0.41 10.4343 7.2783 2.70061
102 34 5 -0.82 11.2901 7.79454 2.52081
103 35 3 0.41 10.1091 8.59506 12.092
104 35 3 0.41 9.36325 7.20276 11.8522
105 35 5 -0.82 10.1141 7.80424 11.4553
106 36 3 0.41 4.34234 4.612 -1.00627
107 36 3 0.41 3.50272 3.47966 -0.284882
108 36 5 -0.82 4.35153 3.59595 -0.860267
109 37 3 0.41 12.4678 10.5062 22.4952
110 37 3 0.41 -0.914348 10.0028 21.0237
111 37 5 -0.82 -0.643443 10.3486 21.9701
112 38 3 0.41 11.8563 3.15927 -1.11934
113 38 3 0.41 10.4894 2.58841 -0.533449
114 38 5 -0.82 11.007 2.63895 -1.40203
115 39 3 0.41 8.91904 6.79078 -14.6857
116 39 3 0.41 10.2075 7.29903 -13.7775
117 39 5 -0.82 9.91629 6.66164 -14.5828
118 40 3 0.41 7.53882 9.2694 -19.4729
119 40 3 0.41 6.03194 9.10924 -18.7284
120 40 5 -0.82 7.05219 8.91908 -18.6108
121 41 3 0.41 4.3028 5.20997 -16.8975
122 41 3 0.41 3.15242 4.48581 -17.7034
123 41 5 -0.82 3.95093 4.27351 -17.1352
124 42 3 0.41 2.23409 10.4001 4.79795
125 42 3 0.41 2.04583 11.5421 5.86534
126 42 5 -0.82 2.74748 10.9428 5.48566
127 43 3 0.41 11.3665 1.66881 17.0859
128 43 3 0.41 12.0599 2.77867 16.2172
129 43 5 -0.82 12.2688 2.15732 17.0167
130 44 3 0.41 3.29719 5.95739 -18.9773
131 44 3 0.41 1.96575 5.96506 -19.8056
132 44 5 -0.82 2.47484 5.45003 -19.1291
133 45 3 0.41 12.0386 5.34554 2.43117
134 45 3 0.41 10.8966 4.28795 2.69289
135 45 5 -0.82 11.426 4.73361 1.93817
136 46 3 0.41 11.2827 1.91459 11.5205
137 46 3 0.41 10.0919 2.16712 12.3335
138 46 5 -0.82 10.4262 1.41697 11.7777
139 47 3 0.41 0.966892 11.6217 0.345353
140 47 3 0.41 -0.723311 11.7727 -0.0205805
141 47 5 -0.82 0.210184 12.179 -0.0709339
142 48 3 0.41 -0.964166 2.56234 20.4783
143 48 3 0.41 -0.674659 2.48461 18.918
144 48 5 -0.82 -0.512804 1.99711 19.7943
145 49 3 0.41 12.1399 12.4083 -5.393
146 49 3 0.41 11.5409 12.1623 -3.92146
147 49 5 -0.82 11.4885 11.8106 -4.83833
148 50 3 0.41 10.73 11.6233 22.2761
149 50 3 0.41 11.0349 -1.17091 23.3804
150 50 5 -0.82 11.2021 -1.49869 22.4452
151 51 3 0.41 1.72955 10.5686 8.6979
152 51 3 0.41 3.18939 10.4299 8.00338
153 51 5 -0.82 2.60141 11.1018 8.49674
154 52 3 0.41 12.0596 0.85886 -13.3843
155 52 3 0.41 12.4795 2.33608 -13.5749
156 52 5 -0.82 11.6712 1.79063 -13.4988
157 53 3 0.41 -0.727906 4.36217 7.4468
158 53 3 0.41 0.118409 5.61223 6.68735
159 53 5 -0.82 -0.535941 4.81537 6.58183
160 54 3 0.41 6.94004 12.0421 11.6727
161 54 3 0.41 6.18375 10.8545 12.325
162 54 5 -0.82 7.04513 11.4079 12.3775
163 55 3 0.41 1.35143 8.24485 14.0125
164 55 3 0.41 0.0873495 8.55724 13.3029
165 55 5 -0.82 0.522464 8.66589 14.1712
166 56 3 0.41 1.49582 3.16414 9.68467
167 56 3 0.41 0.795231 4.60231 9.68593
168 56 5 -0.82 1.23004 3.94277 9.07694
169 57 3 0.41 5.21783 11.8995 -16.6856
170 57 3 0.41 3.85498 -1.39146 -16.4658
171 57 5 -0.82 4.75686 -1.2112 -16.8728
172 58 3 0.41 0.272156 10.6455 -18.9918
173 58 3 0.41 1.29571 11.4378 -18.2194
174 58 5 -0.82 1.26752 10.8342 -19.0491
175 59 3 0.41 -1.14807 8.74283 6.01489
176 59 3 0.41 12.4392 7.82303 7.40172
177 59 5 -0.82 -0.994075 7.85429 6.56887
178 60 3 0.41 5.08588 9.61344 0.995624
179 60 3 0.41 4.45829 8.79062 2.22213
180 60 5 -0.82 5.29421 9.22238 1.89267
181 61 3 0.41 9.20595 3.9363 13.515
182 61 3 0.41 8.50975 2.90195 14.4913
183 61 5 -0.82 9.06614 2.95711 13.6394
184 62 3 0.41 2.89308 7.01588 2.38557
185 62 3 0.41 2.54357 8.44826 3.03621
186 62 5 -0.82 2.89701 8.02664 2.21865
187 63 3 0.41 4.07193 7.51539 19.6483
188 63 3 0.41 3.50578 6.45491 18.6081
189 63 5 -0.82 3.58494 6.65499 19.6524
190 64 3 0.41 9.40745 12.0246 6.31325
191 64 3 0.41 9.07889 11.5085 4.63336
192 64 5 -0.82 8.71674 11.8561 5.5208
193 65 3 0.41 1.99825 3.69476 -4.41399
194 65 3 0.41 2.97524 3.50094 -3.20878
195 65 5 -0.82 2.73902 3.08784 -4.11814
196 66 3 0.41 -0.432453 4.6896 0.250031
197 66 3 0.41 -0.546947 5.01653 -1.34489
198 66 5 -0.82 -0.777794 4.35361 -0.614315
199 67 3 0.41 8.04715 -0.519027 8.91078
200 67 3 0.41 9.07343 -1.38559 9.74096
201 67 5 -0.82 8.54046 -1.41851 8.93436
202 68 3 0.41 4.84888 9.44145 20.212
203 68 3 0.41 4.71154 9.9358 18.6864
204 68 5 -0.82 4.95534 9.13057 19.2312
205 69 3 0.41 11.6501 2.39025 -21.744
206 69 3 0.41 -1.10075 1.41751 -22.0551
207 69 5 -0.82 11.8935 1.50178 -22.0918
208 70 3 0.41 8.28857 5.61059 -19.5223
209 70 3 0.41 7.95219 7.1754 -19.4487
210 70 5 -0.82 7.80227 6.35138 -19.9859
211 71 3 0.41 3.60776 4.97568 3.19772
212 71 3 0.41 2.47787 4.79664 2.12624
213 71 5 -0.82 2.85959 5.50681 2.78803
214 72 3 0.41 2.29319 9.06495 17.6642
215 72 3 0.41 2.92034 9.77458 16.3971
216 72 5 -0.82 2.19779 9.20635 16.6823
217 73 3 0.41 -0.672078 12.14 -9.71213
218 73 3 0.41 0.674123 -1.02024 -9.96018
219 73 5 -0.82 0.345623 12.0746 -9.59749
220 74 3 0.41 9.40875 12.2518 0.0105643
221 74 3 0.41 9.25153 10.618 0.027211
222 74 5 -0.82 9.19046 11.4609 0.605026
223 75 3 0.41 11.1773 3.43734 -7.69446
224 75 3 0.41 10.0831 2.62789 -6.79888
225 75 5 -0.82 10.5935 2.60446 -7.68053
226 76 3 0.41 4.18003 1.19158 -15.3578
227 76 3 0.41 5.06811 0.0732896 -16.086
228 76 5 -0.82 5.18652 0.962902 -15.5689
229 77 3 0.41 11.6875 10.8545 15.5537
230 77 3 0.41 11.855 9.26997 15.37
231 77 5 -0.82 12.3377 10.1508 15.132
232 78 3 0.41 11.8806 7.10158 -11.8909
233 78 3 0.41 11.8727 6.12027 -10.5443
234 78 5 -0.82 12.2746 6.26781 -11.4872
235 79 3 0.41 11.2408 9.95969 4.78112
236 79 3 0.41 12.3872 11.1042 5.02616
237 79 5 -0.82 12.1897 10.1147 5.19013
238 80 3 0.41 2.69676 2.3731 -13.2342
239 80 3 0.41 2.79976 1.45033 -12.0193
240 80 5 -0.82 3.36547 1.79795 -12.7756
241 81 3 0.41 0.211963 -1.3206 -4.26561
242 81 3 0.41 -0.15195 -0.277199 -3.10299
243 81 5 -0.82 0.558108 -0.46536 -3.73833
244 82 3 0.41 3.64727 7.16803 -1.03428
245 82 3 0.41 4.0439 6.29445 0.281479
246 82 5 -0.82 3.57126 6.26472 -0.562207
247 83 3 0.41 12.497 9.58491 0.643291
248 83 3 0.41 11.4895 10.7905 1.1757
249 83 5 -0.82 11.8181 10.2937 0.366278
250 84 3 0.41 4.54359 0.84201 2.61469
251 84 3 0.41 3.80292 1.48339 1.33339
252 84 5 -0.82 4.65376 0.982791 1.60583
253 85 3 0.41 6.43081 10.3715 21.6825
254 85 3 0.41 7.01148 11.1417 20.4181
255 85 5 -0.82 7.17146 10.9925 21.398
256 86 3 0.41 -0.391895 6.63083 -17.4575
257 86 3 0.41 12.2159 6.93042 -18.0575
258 86 5 -0.82 -1.38777 6.44335 -17.2545
259 87 3 0.41 8.92902 0.181634 3.51324
260 87 3 0.41 10.504 0.514357 3.42351
261 87 5 -0.82 9.65236 0.418152 2.80475
262 88 3 0.41 9.92984 8.54536 14.6783
263 88 3 0.41 9.83629 8.25817 16.2477
264 88 5 -0.82 10.4215 8.05695 15.4106
265 89 3 0.41 10.3286 6.50956 -22.087
266 89 3 0.41 8.87532 6.20336 -21.4778
267 89 5 -0.82 9.58211 5.81306 -22.0488
268 90 3 0.41 7.88253 1.43854 -12.7527
269 90 3 0.41 8.66425 2.68714 -13.4685
270 90 5 -0.82 8.41861 2.29475 -12.5843
271 91 3 0.41 -0.11882 11.1794 8.78529
272 91 3 0.41 -0.591812 9.79604 9.35218
273 91 5 -0.82 0.111014 10.2008 8.74083
274 92 3 0.41 9.81807 3.48872 4.94315
275 92 3 0.41 9.02399 3.04904 3.62597
276 92 5 -0.82 9.75228 3.6602 3.93365
277 93 3 0.41 7.59351 7.91946 9.16326
278 93 3 0.41 8.83786 6.85373 9.14266
279 93 5 -0.82 8.58205 7.82554 8.84886
280 94 3 0.41 0.90569 6.58723 4.59583
281 94 3 0.41 2.32953 6.42603 4.16578
282 94 5 -0.82 1.86555 6.58338 5.04656
283 95 3 0.41 8.14761 0.713898 12.5054
284 95 3 0.41 8.69801 -0.402047 11.4846
285 95 5 -0.82 7.85265 0.097486 11.7983
286 96 3 0.41 1.68873 -0.884872 11.6898
287 96 3 0.41 0.763539 12.3859 10.5905
288 96 5 -0.82 1.57314 12.241 11.164
289 97 3 0.41 9.84116 4.15675 18.0488
290 97 3 0.41 10.8091 5.12788 17.3362
291 97 5 -0.82 9.80003 4.89024 17.3465
292 98 3 0.41 9.414 12.0255 -20.3907
293 98 3 0.41 8.24953 11.799 -19.3554
294 98 5 -0.82 8.49706 11.5855 -20.2927
295 99 3 0.41 -0.0262007 10.1566 -4.47989
296 99 3 0.41 0.0718158 10.258 -2.8497
297 99 5 -0.82 -0.197475 10.8054 -3.71263
298 100 3 0.41 6.84455 -0.762851 2.63204
299 100 3 0.41 7.49012 12.2508 1.37849
300 100 5 -0.82 6.69404 -1.24113 1.74938
301 101 3 0.41 10.4127 8.78687 -4.96272
302 101 3 0.41 9.17465 7.9384 -5.10132
303 101 5 -0.82 9.50807 8.86506 -5.40465
304 102 3 0.41 9.44844 1.19046 -21.7331
305 102 3 0.41 7.95064 0.980936 -21.8244
306 102 5 -0.82 8.79026 0.508379 -22.0159
307 103 3 0.41 7.32676 2.78876 16.8702
308 103 3 0.41 8.13941 3.99523 16.2204
309 103 5 -0.82 7.85339 3.03282 16.0283
310 104 3 0.41 -0.332201 5.66022 -12.1356
311 104 3 0.41 1.19537 5.24725 -11.8406
312 104 5 -0.82 0.487502 5.2363 -12.5465
313 105 3 0.41 11.3458 -1.15317 5.5832
314 105 3 0.41 12.3111 -0.151731 4.60914
315 105 5 -0.82 11.9789 -1.11881 4.77708
316 106 3 0.41 5.09659 9.10029 -6.12946
317 106 3 0.41 3.87325 9.31725 -5.25241
318 106 5 -0.82 4.10501 8.87594 -6.12743
319 107 3 0.41 3.056 9.72296 -7.49919
320 107 3 0.41 1.76772 9.8166 -8.39951
321 107 5 -0.82 2.34037 10.4361 -7.80962
322 108 3 0.41 11.8705 9.88273 -19.0519
323 108 3 0.41 -1.04004 9.13708 -20.0943
324 108 5 -0.82 -1.14312 9.66835 -19.2402
325 109 3 0.41 6.18317 10.721 -21.9677
326 109 3 0.41 4.72549 10.1927 -21.7395
327 109 5 -0.82 5.66749 9.847 -21.9373
328 110 3 0.41 10.4052 5.38605 0.652409
329 110 3 0.41 9.54223 4.53058 -0.497847
330 110 5 -0.82 9.9702 5.45156 -0.282416
331 111 3 0.41 9.56548 5.17995 -12.1851
332 111 3 0.41 11.101 5.14481 -11.8935
333 111 5 -0.82 10.3875 4.65 -12.4564
334 112 3 0.41 -0.847277 5.17866 -22.1887
335 112 3 0.41 11.9469 4.62838 -21.241
336 112 5 -0.82 12.3907 4.52432 -22.1617
337 113 3 0.41 3.92715 6.95341 13.9297
338 113 3 0.41 3.46334 8.15169 14.6614
339 113 5 -0.82 3.0309 7.48728 14.0525
340 114 3 0.41 5.24667 8.51769 -12.8499
341 114 3 0.41 4.85522 9.22433 -11.3348
342 114 5 -0.82 5.09322 9.4005 -12.3122
343 115 3 0.41 7.85795 10.7005 8.39328
344 115 3 0.41 8.22167 9.21101 8.06375
345 115 5 -0.82 7.85024 10.047 7.61582
346 116 3 0.41 5.68527 6.45901 21.5482
347 116 3 0.41 4.65127 6.6339 22.6984
348 116 5 -0.82 5.32903 7.14369 22.1777
349 117 3 0.41 11.0229 9.04776 -15.0445
350 117 3 0.41 12.1039 8.42926 -16.0592
351 117 5 -0.82 11.1945 8.87482 -16.0222
352 118 3 0.41 9.3056 5.82146 -3.95369
353 118 3 0.41 7.85826 6.63996 -4.2221
354 118 5 -0.82 8.80347 6.49252 -4.56851
355 119 3 0.41 8.50293 2.06418 -7.10167
356 119 3 0.41 7.13673 2.23457 -7.93153
357 119 5 -0.82 7.78646 1.55143 -7.60583
358 120 3 0.41 5.94237 11.0893 8.71045
359 120 3 0.41 5.63998 9.72351 9.40672
360 120 5 -0.82 5.68719 10.6787 9.58275
361 121 3 0.41 8.10178 3.30859 -18.5383
362 121 3 0.41 9.23873 4.28494 -18.0162
363 121 5 -0.82 8.79311 3.9238 -18.8842
364 122 3 0.41 2.27926 0.517308 9.32608
365 122 3 0.41 2.35705 1.15739 10.8864
366 122 5 -0.82 1.96924 1.28822 9.94027
367 123 3 0.41 0.550526 -1.48266 2.86903
368 123 3 0.41 -0.806507 11.6173 2.73021
369 123 5 -0.82 0.127784 11.5851 3.13483
370 124 3 0.41 12.4823 7.62783 -5.19737
371 124 3 0.41 -1.19403 6.4494 -4.32266
372 124 5 -0.82 -1.36745 6.61494 -5.32993
373 125 3 0.41 1.23216 11.0753 -13.3307
374 125 3 0.41 0.666697 12.4161 -14.1352
375 125 5 -0.82 0.374135 11.6529 -13.484
376 126 3 0.41 -1.0533 0.721986 -16.7639
377 126 3 0.41 -0.451711 0.499524 -15.3627
378 126 5 -0.82 -1.33733 0.37855 -15.8759
379 127 3 0.41 5.69905 7.64129 16.0601
380 127 3 0.41 4.94657 8.69439 17.028
381 127 5 -0.82 4.7396 8.00926 16.2736
382 128 3 0.41 9.38164 4.06789 7.49983
383 128 3 0.41 10.5482 3.24348 6.78067
384 128 5 -0.82 9.6767 3.65001 6.64484
385 129 3 0.41 5.56107 6.42227 1.9655
386 129 3 0.41 6.70474 5.5995 1.28831
387 129 5 -0.82 5.80781 6.0185 1.07047
388 130 3 0.41 2.90149 1.80626 -8.4742
389 130 3 0.41 1.78746 0.954667 -9.24622
390 130 5 -0.82 2.15948 1.18108 -8.31832
391 131 3 0.41 12.3355 12.4439 -16.2582
392 131 3 0.41 12.093 11.6331 -14.7748
393 131 5 -0.82 12.4284 11.5701 -15.7701
394 132 3 0.41 1.57414 9.7256 -5.4523
395 132 3 0.41 0.84202 8.25379 -5.58934
396 132 5 -0.82 0.686223 9.25005 -5.55699
397 133 3 0.41 6.23774 -0.0873367 4.44524
398 133 3 0.41 7.88018 -0.0213248 4.80931
399 133 5 -0.82 7.19917 -0.0570989 4.07201
400 134 3 0.41 0.227234 1.78743 -1.90269
401 134 3 0.41 0.787239 3.09948 -2.53226
402 134 5 -0.82 0.491297 2.15556 -2.81948
403 135 3 0.41 8.0461 3.61855 -22.287
404 135 3 0.41 9.2805 4.07793 -21.6117
405 135 5 -0.82 8.86056 3.20981 -21.8602
406 136 3 0.41 4.76459 11.6758 10.6067
407 136 3 0.41 3.30292 11.7965 11.3083
408 136 5 -0.82 4.23318 12.2701 11.2107
409 137 3 0.41 10.3467 10.875 2.58436
410 137 3 0.41 9.14024 9.79119 2.80911
411 137 5 -0.82 9.77665 10.3882 3.31261
412 138 3 0.41 12.3059 8.01873 16.6308
413 138 3 0.41 -0.357531 7.65265 17.415
414 138 5 -0.82 -0.896976 8.40662 17.0584
415 139 3 0.41 10.3572 9.26982 21.7464
416 139 3 0.41 8.99269 9.86982 21.8357
417 139 5 -0.82 9.93632 10.1774 21.674
418 140 3 0.41 5.95457 11.3979 -0.322171
419 140 3 0.41 4.54909 11.5348 0.264913
420 140 5 -0.82 5.16364 10.8543 -0.179936
421 141 3 0.41 5.80949 0.237854 -19.2497
422 141 3 0.41 4.86703 -0.660813 -18.3217
423 141 5 -0.82 4.84225 -0.0122549 -19.1539
424 142 3 0.41 1.61525 5.9231 -6.37543
425 142 3 0.41 2.86347 6.63393 -5.62063
426 142 5 -0.82 1.90453 6.79247 -5.99135
427 143 3 0.41 5.04406 5.58679 12.2315
428 143 3 0.41 5.50122 4.50235 11.2342
429 143 5 -0.82 5.06937 5.41964 11.259
430 144 3 0.41 3.67886 -1.35746 -12.0381
431 144 3 0.41 4.00264 0.0213297 -12.6708
432 144 5 -0.82 4.11932 -0.965127 -12.8916
433 145 3 0.41 10.2251 0.697774 -7.90661
434 145 3 0.41 9.68309 -0.789724 -7.56484
435 145 5 -0.82 10.2476 -0.256623 -8.16791
436 146 3 0.41 7.99959 1.26151 -10.2444
437 146 3 0.41 7.86452 -0.00235341 -11.2761
438 146 5 -0.82 7.75201 0.250163 -10.3046
439 147 3 0.41 9.9817 2.71792 -9.39832
440 147 3 0.41 8.6703 3.66732 -9.60359
441 147 5 -0.82 9.28165 2.97707 -10.069
442 148 3 0.41 2.70454 -0.0337719 18.7166
443 148 3 0.41 2.13043 1.32639 18.5718
444 148 5 -0.82 2.10498 0.596611 19.2078
445 149 3 0.41 -0.309271 4.18057 -4.79026
446 149 3 0.41 0.483293 5.53841 -4.6263
447 149 5 -0.82 0.597155 4.60882 -4.9702
448 150 3 0.41 -0.46949 9.13519 -9.53429
449 150 3 0.41 0.411931 10.4684 -9.18769
450 150 5 -0.82 0.448314 9.44187 -9.22646
451 151 3 0.41 4.32539 2.49815 12.8219
452 151 3 0.41 3.81392 2.97376 11.4334
453 151 5 -0.82 3.64716 3.13982 12.4333
454 152 3 0.41 6.84611 11.5646 3.21555
455 152 3 0.41 5.92957 10.2113 3.03125
456 152 5 -0.82 6.28145 10.8933 3.71587
457 153 3 0.41 11.4309 6.17283 9.08367
458 153 3 0.41 -1.3371 7.13238 9.0858
459 153 5 -0.82 11.6383 7.13105 8.89323
460 154 3 0.41 5.76353 3.40475 -18.9651
461 154 3 0.41 4.38224 3.40065 -19.6144
462 154 5 -0.82 5.34078 3.64704 -19.835
463 155 3 0.41 4.31496 -0.274127 16.8769
464 155 3 0.41 5.43407 0.829173 16.929
465 155 5 -0.82 5.11981 0.0338197 17.4902
466 156 3 0.41 0.714451 8.43303 -17.7218
467 156 3 0.41 1.00309 7.28601 -18.8543
468 156 5 -0.82 1.12231 7.44662 -17.8412
469 157 3 0.41 0.19149 -0.648393 14.896
470 157 3 0.41 -0.821847 0.459424 15.3883
471 157 5 -0.82 -0.12818 -0.162981 15.7354
472 158 3 0.41 0.799276 0.105559 -13.2989
473 158 3 0.41 1.57322 0.908609 -14.5396
474 158 5 -0.82 1.02458 0.111282 -14.2999
475 159 3 0.41 0.455044 8.2796 -11.6451
476 159 3 0.41 1.31024 8.35191 -10.3973
477 159 5 -0.82 1.11819 7.70494 -11.0936
478 160 3 0.41 10.9511 0.477785 20.0923
479 160 3 0.41 10.3637 -0.943617 19.5963
480 160 5 -0.82 10.7018 -0.0415799 19.2328
481 161 3 0.41 10.5906 0.237376 -19.1831
482 161 3 0.41 10.1382 -0.694936 -17.9282
483 161 5 -0.82 10.5483 -0.762323 -18.8311
484 162 3 0.41 -0.633275 9.58618 -6.16527
485 162 3 0.41 12.2287 10.5952 -6.13018
486 162 5 -0.82 12.4423 9.72074 -6.5639
487 163 3 0.41 3.44014 9.94185 -12.9592
488 163 3 0.41 2.50329 8.99562 -13.7388
489 163 5 -0.82 2.5357 9.94493 -13.4316
490 164 3 0.41 6.65998 8.8729 -6.85815
491 164 3 0.41 7.44125 9.47561 -5.55674
492 164 5 -0.82 6.6386 9.58123 -6.1351
493 165 3 0.41 1.79018 12.2252 20.1141
494 165 3 0.41 1.68482 10.9122 19.0678
495 165 5 -0.82 2.28159 11.7313 19.3237
496 166 3 0.41 -0.0694366 1.31222 4.02241
497 166 3 0.41 -1.14468 1.55367 2.80458
498 166 5 -0.82 -1.09362 1.27676 3.79587
499 167 3 0.41 5.93434 7.64131 -10.878
500 167 3 0.41 5.34892 6.23899 -11.5621
501 167 5 -0.82 6.20146 6.85295 -11.4845
502 168 3 0.41 2.18665 11.9712 -7.21781
503 168 3 0.41 2.05105 -0.299431 -7.45901
504 168 5 -0.82 2.09951 -1.10771 -6.7951
505 169 3 0.41 0.688543 10.275 3.61861
506 169 3 0.41 0.429516 8.69842 4.01469
507 169 5 -0.82 1.16625 9.42762 3.98174
508 170 3 0.41 11.5293 1.06007 9.27276
509 170 3 0.41 11.3441 1.58961 7.82477
510 170 5 -0.82 10.8126 1.3548 8.65907
511 171 3 0.41 10.2805 9.31143 7.16145
512 171 3 0.41 10.7854 10.9583 7.67157
513 171 5 -0.82 10.5963 9.95006 7.90086
514 172 3 0.41 9.73457 10.7548 20.1653
515 172 3 0.41 8.92262 11.1456 18.798
516 172 5 -0.82 9.8721 11.1353 19.2079
517 173 3 0.41 7.5612 1.42525 8.09667
518 173 3 0.41 6.99946 1.96529 6.66836
519 173 5 -0.82 7.16396 1.08365 7.23216
520 174 3 0.41 10.2242 8.39428 18.6411
521 174 3 0.41 8.80798 8.25212 18.1885
522 174 5 -0.82 9.67841 8.57422 17.8271
523 175 3 0.41 12.4879 3.27256 9.48224
524 175 3 0.41 11.2165 4.18333 9.04133
525 175 5 -0.82 12.2564 4.19452 9.03681
526 176 3 0.41 12.0238 2.44746 -4.9429
527 176 3 0.41 -1.158 2.72628 -3.55764
528 176 5 -0.82 12.3428 3.17886 -4.30874
529 177 3 0.41 10.6475 -0.687675 14.1157
530 177 3 0.41 10.646 0.613516 15.0536
531 177 5 -0.82 11.2856 0.0272607 14.4776
532 178 3 0.41 -1.33172 9.19835 -11.6802
533 178 3 0.41 -0.528744 10.0708 -12.8896
534 178 5 -0.82 -0.719763 9.15576 -12.4654
535 179 3 0.41 3.55264 11.6847 -21.2629
536 179 3 0.41 2.56475 10.7611 -20.2854
537 179 5 -0.82 3.43534 10.7726 -20.8635
538 180 3 0.41 4.25121 9.61823 -1.02156
539 180 3 0.41 4.58132 8.99167 -2.52015
540 180 5 -0.82 3.92817 8.90138 -1.70138
541 181 3 0.41 8.6383 -1.26524 -5.01555
542 181 3 0.41 8.51674 0.320746 -4.61123
543 181 5 -0.82 8.79772 -0.318049 -5.37155
544 182 3 0.41 -1.28183 3.52394 -10.2244
545 182 3 0.41 -0.475422 2.6327 -11.3311
546 182 5 -0.82 -1.31484 3.23032 -11.1961
547 183 3 0.41 0.345976 5.60537 -15.5643
548 183 3 0.41 1.46869 6.09392 -16.4688
549 183 5 -0.82 1.31749 5.53357 -15.6959
550 184 3 0.41 3.3141 5.32728 11.4083
551 184 3 0.41 2.04116 4.88246 12.2948
552 184 5 -0.82 2.30156 5.4832 11.4488
553 185 3 0.41 1.80701 6.66367 -14.4193
554 185 3 0.41 1.88985 7.24294 -12.8787
555 185 5 -0.82 2.33896 7.20363 -13.7904
556 186 3 0.41 1.6316 3.83723 -6.42088
557 186 3 0.41 2.96261 3.93001 -7.34687
558 186 5 -0.82 1.9958 4.24809 -7.28586
559 187 3 0.41 8.27887 2.64413 -2.40583
560 187 3 0.41 9.70005 2.08505 -2.33712
561 187 5 -0.82 8.81798 1.89379 -2.81747
562 188 3 0.41 4.85295 -1.00055 -21.9361
563 188 3 0.41 3.64883 0.0615238 -22.156
564 188 5 -0.82 3.88177 -0.917893 -22.1301
565 189 3 0.41 3.90557 7.39586 10.6122
566 189 3 0.41 3.16356 8.66192 11.2193
567 189 5 -0.82 4.05662 8.24113 11.0784
568 190 3 0.41 4.75874 9.10861 12.3604
569 190 3 0.41 5.35429 9.1848 13.8184
570 190 5 -0.82 4.94511 9.76016 13.1284
571 191 3 0.41 1.15443 5.44622 15.1798
572 191 3 0.41 0.425172 6.92958 15.2017
573 191 5 -0.82 0.641623 6.12037 15.7927
574 192 3 0.41 6.61775 1.09303 20.8995
575 192 3 0.41 7.18852 -0.372572 21.0631
576 192 5 -0.82 6.94198 0.280685 20.3489
577 193 3 0.41 4.18405 -0.275881 21.6783
578 193 3 0.41 3.18183 0.473993 20.6158
579 193 5 -0.82 3.94392 0.640523 21.2645
580 194 3 0.41 1.00446 11.4078 13.609
581 194 3 0.41 2.20929 11.8391 14.586
582 194 5 -0.82 1.24765 11.443 14.567
583 195 3 0.41 2.55486 5.44909 13.9024
584 195 3 0.41 2.45894 3.84786 13.7525
585 195 5 -0.82 1.91972 4.67313 13.955
586 196 3 0.41 9.95421 -0.589382 -22.388
587 196 3 0.41 11.4639 -0.878098 -21.8932
588 196 5 -0.82 10.6489 -1.33541 -22.2443
589 197 3 0.41 8.0184 8.255 5.53592
590 197 3 0.41 6.94332 7.89009 4.50934
591 197 5 -0.82 7.15446 8.55674 5.2125
592 198 3 0.41 10.2348 0.435993 -10.1588
593 198 3 0.41 11.045 0.100581 -11.6012
594 198 5 -0.82 10.7609 0.814769 -10.9684
595 199 3 0.41 6.49481 2.21597 -5.36403
596 199 3 0.41 6.00395 1.33856 -4.18346
597 199 5 -0.82 6.48839 1.2545 -5.05435
598 200 3 0.41 4.47874 6.00807 6.75922
599 200 3 0.41 3.58188 6.71582 5.58425
600 200 5 -0.82 4.45847 6.85388 6.16533
601 201 3 0.41 6.95606 7.13881 17.4603
602 201 3 0.41 6.55466 8.13633 18.7289
603 201 5 -0.82 6.98241 8.13677 17.8146
604 202 3 0.41 6.15244 5.4757 -21.8725
605 202 3 0.41 6.2481 4.05466 -21.1969
606 202 5 -0.82 6.53206 4.55591 -22.0293
607 203 3 0.41 1.35697 4.21479 19.9452
608 203 3 0.41 1.78698 4.81869 18.5097
609 203 5 -0.82 1.78846 3.96972 19.0657
610 204 3 0.41 8.89207 9.20881 -10.5587
611 204 3 0.41 7.99169 9.82599 -11.7703
612 204 5 -0.82 8.77397 9.21087 -11.5931
613 205 3 0.41 11.143 11.548 -12.7641
614 205 3 0.41 9.9665 11.3064 -13.7669
615 205 5 -0.82 10.8908 10.9887 -13.5201
616 206 3 0.41 7.2389 1.38287 3.81144
617 206 3 0.41 6.97359 3.03432 4.37438
618 206 5 -0.82 7.30165 2.43171 3.62837
619 207 3 0.41 0.807764 8.53159 7.4604
620 207 3 0.41 1.7436 7.90144 6.51883
621 207 5 -0.82 1.71225 8.08382 7.46258
622 208 3 0.41 0.199444 -0.306966 -0.427949
623 208 3 0.41 0.876857 1.02588 0.0829676
624 208 5 -0.82 0.199611 0.684548 -0.599263
625 209 3 0.41 10.4732 1.91687 -18.8045
626 209 3 0.41 9.44247 2.43334 -19.9782
627 209 5 -0.82 10.164 1.72499 -19.7961
628 210 3 0.41 11.895 10.6781 9.67087
629 210 3 0.41 12.3608 10.275 11.2293
630 210 5 -0.82 12.1388 9.89013 10.3121
631 211 3 0.41 6.20325 2.27833 15.2708
632 211 3 0.41 4.64927 1.87767 15.3703
633 211 5 -0.82 5.59115 1.5027 15.2718
634 212 3 0.41 4.70351 12.3533 23.1694
635 212 3 0.41 4.63252 11.4102 21.9214
636 212 5 -0.82 4.28074 12.3043 22.2509
637 213 3 0.41 2.59087 11.0641 1.65978
638 213 3 0.41 2.31258 9.64405 1.16969
639 213 5 -0.82 2.15959 10.5987 0.874771
640 214 3 0.41 0.968879 1.66723 -7.05723
641 214 3 0.41 -0.335727 1.4357 -6.03953
642 214 5 -0.82 0.639257 1.66014 -6.07409
643 215 3 0.41 8.24123 8.28261 -17.3292
644 215 3 0.41 9.6152 8.2323 -16.2731
645 215 5 -0.82 8.9989 7.73821 -16.9745
646 216 3 0.41 4.18293 1.46393 6.75235
647 216 3 0.41 3.241 1.03724 7.92575
648 216 5 -0.82 3.90434 1.73961 7.68523
649 217 3 0.41 8.38936 11.7627 -17.4247
650 217 3 0.41 6.92923 11.0616 -17.5858
651 217 5 -0.82 7.46055 11.9211 -17.805
652 218 3 0.41 10.1656 1.10734 6.04084
653 218 3 0.41 8.55702 0.837648 6.36814
654 218 5 -0.82 9.35061 0.630394 5.75211
655 219 3 0.41 7.16666 5.71351 -12.8389
656 219 3 0.41 7.679 4.59693 -13.9358
657 219 5 -0.82 7.52765 5.59136 -13.7835
658 220 3 0.41 11.5255 6.40232 15.1554
659 220 3 0.41 12.2193 6.50936 13.6742
660 220 5 -0.82 11.9482 5.87175 14.4379
661 221 3 0.41 3.07304 9.1646 -21.9096
662 221 3 0.41 2.30155 7.76678 -21.8644
663 221 5 -0.82 3.1001 8.21495 -22.2754
664 222 3 0.41 7.67163 0.188138 -18.4354
665 222 3 0.41 8.57797 0.504307 -19.7395
666 222 5 -0.82 7.61186 0.556348 -19.4005
667 223 3 0.41 5.20286 5.01473 -8.29275
668 223 3 0.41 5.85295 5.43964 -6.80783
669 223 5 -0.82 5.07923 5.65477 -7.51297
670 224 3 0.41 8.60511 5.68238 2.42448
671 224 3 0.41 8.51564 7.20676 2.50134
672 224 5 -0.82 9.00252 6.46778 2.98463
673 225 3 0.41 5.67712 2.57603 -0.237121
674 225 3 0.41 6.34148 1.56657 0.665932
675 225 5 -0.82 6.63035 2.31947 0.0540699
676 226 3 0.41 10.7087 6.10612 20.1626
677 226 3 0.41 11.5005 5.103 19.3082
678 226 5 -0.82 11.5949 5.59545 20.1697
679 227 3 0.41 8.48446 6.06179 19.204
680 227 3 0.41 8.83991 7.17138 20.3885
681 227 5 -0.82 9.23618 6.59894 19.6422
682 228 3 0.41 7.17935 10.9929 -10.065
683 228 3 0.41 6.01755 11.6987 -10.9856
684 228 5 -0.82 6.97459 11.3846 -10.98
685 229 3 0.41 6.65971 6.96188 -21.1083
686 229 3 0.41 6.02008 8.17849 -21.8091
687 229 5 -0.82 5.88575 7.1821 -21.6997
688 230 3 0.41 6.17962 4.1421 6.97021
689 230 3 0.41 7.06473 4.53485 5.67099
690 230 5 -0.82 6.71609 3.7347 6.20629
691 231 3 0.41 2.27739 9.70506 -16.2984
692 231 3 0.41 2.87835 8.40336 -17.0188
693 231 5 -0.82 3.17888 9.29841 -16.57
694 232 3 0.41 9.63429 3.3567 -4.75121
695 232 3 0.41 8.85869 2.08091 -4.82906
696 232 5 -0.82 9.16152 2.81775 -5.43075
697 233 3 0.41 2.22367 -0.653059 1.22704
698 233 3 0.41 3.78946 -0.472765 0.919918
699 233 5 -0.82 2.91529 -0.727856 0.501907
700 234 3 0.41 4.41827 2.33657 9.2285
701 234 3 0.41 5.21789 3.70274 9.26001
702 234 5 -0.82 4.92185 2.95257 9.8834
703 235 3 0.41 5.72866 -0.248034 8.6728
704 235 3 0.41 4.82145 -0.656631 10.004
705 235 5 -0.82 5.58065 -0.0695964 9.644
706 236 3 0.41 0.290084 9.58813 1.9077
707 236 3 0.41 0.144165 8.2008 0.885731
708 236 5 -0.82 -0.32125 8.9627 1.36653
709 237 3 0.41 0.0412826 0.819598 8.06298
710 237 3 0.41 1.03797 2.10687 8.15499
711 237 5 -0.82 0.316084 1.66888 7.57191
712 238 3 0.41 0.599758 9.70512 11.7485
713 238 3 0.41 1.77117 10.5326 11.1965
714 238 5 -0.82 1.41756 9.5563 11.1524
715 239 3 0.41 6.38238 6.64216 -3.26789
716 239 3 0.41 6.18988 8.06795 -3.87572
717 239 5 -0.82 6.29074 7.09559 -4.207
718 240 3 0.41 4.14502 9.84544 -17.9826
719 240 3 0.41 4.14931 10.5921 -19.4474
720 240 5 -0.82 4.66438 9.95991 -18.8118
721 241 3 0.41 7.43406 3.97436 2.27123
722 241 3 0.41 8.782 3.76697 1.50206
723 241 5 -0.82 8.0618 4.48345 1.65119
724 242 3 0.41 1.34662 4.22263 -0.961021
725 242 3 0.41 1.61211 5.38324 -2.07048
726 242 5 -0.82 1.63161 4.39128 -1.92934
727 243 3 0.41 2.44963 2.3158 -18.4746
728 243 3 0.41 3.66861 1.35334 -18.866
729 243 5 -0.82 3.25978 2.30149 -19.0623
730 244 3 0.41 0.551978 3.49934 21.633
731 244 3 0.41 0.287532 5.03017 22.0042
732 244 5 -0.82 1.01443 4.42331 21.5976
733 245 3 0.41 5.17964 1.40401 -21.8662
734 245 3 0.41 6.48748 1.87086 -20.9736
735 245 5 -0.82 6.24352 1.43402 -21.8631
736 246 3 0.41 7.65022 4.05461 11.3369
737 246 3 0.41 7.66473 3.08605 12.5876
738 246 5 -0.82 7.05228 3.29639 11.776
739 247 3 0.41 2.64499 6.85479 21.0365
740 247 3 0.41 2.61722 5.91134 22.3555
741 247 5 -0.82 2.45453 6.84156 22.024
742 248 3 0.41 0.00120666 5.24692 12.3209
743 248 3 0.41 -1.4507 4.541 11.7863
744 248 5 -0.82 -0.409752 4.44463 11.8728
745 249 3 0.41 0.5418 1.2853 -18.0001
746 249 3 0.41 0.247074 2.63661 -17.1097
747 249 5 -0.82 0.967952 1.96594 -17.3885
748 250 3 0.41 5.02139 1.75751 21.9158
749 250 3 0.41 6.27737 1.73371 22.8708
750 250 5 -0.82 5.96944 2.13617 21.9948
751 251 3 0.41 -1.28885 1.13009 22.1459
752 251 3 0.41 12.3027 -0.500979 22.1789
753 251 5 -0.82 -0.954401 0.191606 21.9593