ITEM: TIMESTEP
80000
ITEM: NUMBER OF ATOMS
1360
ITEM: BOX BOUNDS pp pp pp
-1.5000000000000000e+00 1.2500000000000000e+01
-1.5000000000000000e+00 1.2500000000000000e+01
-2.7500000000000000e+01 2.7500000000000000e+01
ITEM: ATOMS id mol type q x y z
1 1 3 0.41 0.0669581 0.672885 6.67912
2 1 3 0.41 -1.38442 0.770053 5.96879
3 1 5 -0.82 -0.661417 0.0981878 6.27919
4 2 3 0.41 2.08204 8.10974 -9.32639
5 2 3 0.41 3.16863 8.52314 -8.14153
6 2 5 -0.82 2.17748 8.30686 -8.34991
7 3 3 0.41 0.503576 1.62355 12.7386
8 3 3 0.41 -0.349806 0.665026 13.8402
9 3 5 -0.82 -0.4086 1.4516 13.1645
10 4 3 0.41 3.71577 4.17508 -17.2918
11 4 3 0.41 4.24548 5.64984 -17.4864
12 4 5 -0.82 3.472 5.04554 -17.7051
13 5 3 0.41 0.632635 4.76631 -10.4918
14 5 3 0.41 -0.899981 4.86131 -10.6891
15 5 5 -0.82 -0.132781 5.44994 -10.3989
16 6 3 0.41 -1.41262 7.02135 -17.2574
17 6 3 0.41 -0.469134 6.1951 -16.2585
18 6 5 -0.82 -1.33006 6.76473 -16.2563
19 7 3 0.41 1.8574 4.38621 -21.3908
20 7 3 0.41 0.492791 5.01281 -21.8959
21 7 5 -0.82 1.12045 4.21274 -22.0445
22 8 3 0.41 10.4857 1.94631 12.7938
23 8 3 0.41 12.1162 1.8305 12.5467
24 8 5 -0.82 11.2622 2.20648 12.1502
25 9 3 0.41 9.06532 -1.33427 -10.3474
26 9 3 0.41 10.6487 -1.2787 -10.6251
27 9 5 -0.82 9.75467 -1.04638 -11.0009
28 10 3 0.41 -0.364134 6.90667 -9.41594
29 10 3 0.41 0.343406 8.16351 -8.70849
30 10 5 -0.82 -0.574836 7.76768 -8.86844
31 11 3 0.41 0.0855678 12.0266 -5.66394
32 11 3 0.41 0.869982 -0.628105 -5.18937
33 11 5 -0.82 0.247458 -1.36836 -4.83863
34 12 3 0.41 4.85325 10.1404 -16.7217
35 12 3 0.41 4.13122 9.00658 -15.6494
36 12 5 -0.82 4.98408 9.4749 -15.8935
37 13 3 0.41 12.3037 10.9564 11.1644
38 13 3 0.41 11.4411 9.48486 11.324
39 13 5 -0.82 11.6524 10.262 10.7298
40 14 3 0.41 3.10722 -1.02581 -15.1963
41 14 3 0.41 2.04083 -0.554068 -16.2935
42 14 5 -0.82 2.54995 -0.16574 -15.4838
43 15 3 0.41 5.5133 5.73189 13.1047
44 15 3 0.41 4.85943 4.67181 14.1489
45 15 5 -0.82 5.27382 4.77265 13.1787
46 16 3 0.41 2.49793 8.6938 19.4749
47 16 3 0.41 1.30199 9.20007 18.6471
48 16 5 -0.82 1.80928 9.47509 19.4625
49 17 3 0.41 5.22372 1.10088 23.1619
50 17 3 0.41 4.4748 0.0250349 22.3962
51 17 5 -0.82 4.86407 1.00277 22.2348
52 18 3 0.41 -0.0119665 8.76866 -17.9233
53 18 3 0.41 -0.483023 9.80601 -16.7871
54 18 5 -0.82 -0.190316 9.79611 -17.7172
55 19 3 0.41 8.82975 3.55888 6.71521
56 19 3 0.41 8.62484 5.1674 7.00356
57 19 5 -0.82 8.31076 4.23415 7.30684
58 20 3 0.41 8.73077 4.26629 -1.08069
59 20 3 0.41 8.34143 2.92025 -0.360872
60 20 5 -0.82 9.12222 3.35858 -0.855701
61 21 3 0.41 10.8817 3.28095 23.0849
62 21 3 0.41 11.9467 3.86403 22.0565
63 21 5 -0.82 11.0652 3.29535 22.0996
64 22 3 0.41 5.592 3.92769 -18.5282
65 22 3 0.41 5.71024 3.45614 -17.0318
66 22 5 -0.82 5.56302 3.04239 -17.9913
67 23 3 0.41 0.290948 9.92517 -22.1718
68 23 3 0.41 1.49015 9.90779 -21.1109
69 23 5 -0.82 1.25164 9.67657 -22.0778
70 24 3 0.41 1.39614 8.05623 -11.6233
71 24 3 0.41 2.20544 6.72853 -11.1534
72 24 5 -0.82 2.02595 7.68274 -10.8529
73 25 3 0.41 1.15221 2.03819 -13.7516
74 25 3 0.41 1.18658 3.65835 -13.2395
75 25 5 -0.82 1.62751 2.743 -13.151
76 26 3 0.41 6.3057 11.1072 -7.76807
77 26 3 0.41 7.59895 10.3001 -6.97249
78 26 5 -0.82 7.03408 10.3224 -7.86526
79 27 3 0.41 2.05297 10.7781 -15.3786
80 27 3 0.41 1.67593 11.4701 -16.7558
81 27 5 -0.82 2.37285 10.9191 -16.3191
82 28 3 0.41 -1.03538 7.61255 -6.96275
83 28 3 0.41 12.4732 7.49367 -5.44203
84 28 5 -0.82 12.121 7.60966 -6.37288
85 29 3 0.41 11.8105 10.7695 19.4551
86 29 3 0.41 -1.15771 10.3379 20.6186
87 29 5 -0.82 -1.20081 10.8183 19.7559
88 30 3 0.41 11.5426 9.23993 9.14669
89 30 3 0.41 12.2371 8.11222 8.3209
90 30 5 -0.82 11.3243 8.31099 8.73299
91 31 3 0.41 7.8209 7.99916 -16.4577
92 31 3 0.41 6.5112 9.07443 -16.3121
93 31 5 -0.82 7.40493 8.86678 -16.7422
94 32 3 0.41 11.4873 3.6402 -21.8519
95 32 3 0.41 -0.898898 3.8561 -21.7905
96 32 5 -0.82 12.3898 3.15324 -21.9251
97 33 3 0.41 9.09392 11.8328 -7.89231
98 33 3 0.41 9.37596 -0.539457 -8.11999
99 33 5 -0.82 8.69297 -1.24043 -8.10944
100 34 3 0.41 10.0597 9.08855 4.31175
101 34 3 0.41 8.66145 8.92927 3.91092
102 34 5 -0.82 9.39666 9.54134 3.69993
103 35 3 0.41 11.516 5.16644 12.9322
104 35 3 0.41 10.5188 3.91923 13.1989
105 35 5 -0.82 10.5512 4.93047 13.0745
106 36 3 0.41 5.98658 5.58489 -4.6648
107 36 3 0.41 5.68607 6.71399 -3.47086
108 36 5 -0.82 6.41499 6.34302 -4.14037
109 37 3 0.41 8.40741 8.50107 18.7575
110 37 3 0.41 8.93248 7.58647 19.8489
111 37 5 -0.82 9.29681 8.14798 19.122
112 38 3 0.41 8.36322 11.4733 -1.53776
113 38 3 0.41 9.95587 11.4171 -2.00434
114 38 5 -0.82 9.00946 11.4276 -2.30388
115 39 3 0.41 6.35456 6.16294 -14.1291
116 39 3 0.41 6.28847 7.70074 -14.2831
117 39 5 -0.82 5.76365 6.87334 -14.5445
118 40 3 0.41 5.27985 -1.35798 -17.1443
119 40 3 0.41 5.61927 11.6694 -18.4249
120 40 5 -0.82 4.97481 11.7652 -17.6131
121 41 3 0.41 4.10251 1.14416 -19.7159
122 41 3 0.41 5.3873 1.76075 -19.0163
123 41 5 -0.82 5.11492 1.1501 -19.7103
124 42 3 0.41 1.04504 3.09227 1.87145
125 42 3 0.41 2.36194 2.14231 2.19928
126 42 5 -0.82 2.06875 3.13176 2.05547
127 43 3 0.41 5.93407 10.6731 15.4235
128 43 3 0.41 5.74921 9.38885 14.5949
129 43 5 -0.82 5.80001 10.4102 14.4769
130 44 3 0.41 3.4746 1.63309 -15.8754
131 44 3 0.41 2.21832 2.54073 -16.0204
132 44 5 -0.82 3.21438 2.594 -15.974
133 45 3 0.41 5.86648 0.830027 1.93468
134 45 3 0.41 5.50358 -0.284489 0.890201
135 45 5 -0.82 6.14266 0.524524 0.998775
136 46 3 0.41 0.0919354 0.464381 9.20722
137 46 3 0.41 -0.331026 -0.507784 10.4314
138 46 5 -0.82 -0.654854 -0.0917343 9.56317
139 47 3 0.41 -0.146067 8.18915 -0.663442
140 47 3 0.41 0.417778 7.22129 -1.75907
141 47 5 -0.82 -0.381867 7.76318 -1.52008
142 48 3 0.41 -0.103653 0.570274 17.5937
143 48 3 0.41 0.0431692 0.911996 16.0188
144 48 5 -0.82 0.521179 0.95867 16.8922
145 49 3 0.41 10.1843 10.9272 -5.37427
146 49 3 0.41 9.92361 11.147 -3.74933
147 49 5 -0.82 10.3234 11.5511 -4.59489
148 50 3 0.41 -0.917609 -1.49291 23.2494
149 50 3 0.41 12.4719 -1.45833 21.7533
150 50 5 -0.82 -0.635941 -1.35919 22.2849
151 51 3 0.41 2.00978 11.1387 9.94063
152 51 3 0.41 3.52266 11.3999 10.4061
153 51 5 -0.82 2.97314 10.8344 9.83307
154 52 3 0.41 -1.14714 -0.136369 -13.6458
155 52 3 0.41 -1.31158 1.4138 -13.5855
156 52 5 -0.82 -0.604788 0.71918 -13.8344
157 53 3 0.41 -1.24657 2.86945 2.57267
158 53 3 0.41 -1.48595 3.46846 1.11185
159 53 5 -0.82 -0.785549 2.89353 1.6373
160 54 3 0.41 3.08127 6.11711 13.4145
161 54 3 0.41 4.07751 7.43867 13.5033
162 54 5 -0.82 3.30932 7.05929 13.069
163 55 3 0.41 -0.112145 7.28151 14.3341
164 55 3 0.41 -0.802847 5.89813 14.8403
165 55 5 -0.82 -0.419124 6.77239 15.1423
166 56 3 0.41 11.4972 1.19598 8.64972
167 56 3 0.41 11.1334 2.2049 7.44913
168 56 5 -0.82 10.7391 1.70308 8.24715
169 57 3 0.41 4.93781 1.23101 -16.7645
170 57 3 0.41 6.04514 0.346142 -15.9854
171 57 5 -0.82 5.27079 0.276544 -16.6
172 58 3 0.41 1.66488 8.96325 -16.59
173 58 3 0.41 2.50885 7.68458 -16.1537
174 58 5 -0.82 2.08418 8.1201 -17.0161
175 59 3 0.41 -1.42265 5.30648 8.78307
176 59 3 0.41 10.9683 5.19538 9.11841
177 59 5 -0.82 11.6613 5.03185 8.36906
178 60 3 0.41 5.50842 5.9417 5.74411
179 60 3 0.41 6.17798 6.25208 7.1417
180 60 5 -0.82 6.40711 6.12347 6.13968
181 61 3 0.41 10.839 -1.41107 11.8945
182 61 3 0.41 9.77345 12.1753 13.0236
183 61 5 -0.82 10.7161 -1.44704 12.8682
184 62 3 0.41 12.0166 3.93965 7.03739
185 62 3 0.41 -0.716295 3.10207 6.60293
186 62 5 -0.82 12.3263 3.10454 6.58687
187 63 3 0.41 2.24924 5.20618 20.368
188 63 3 0.41 1.32506 4.48443 19.3322
189 63 5 -0.82 1.83058 5.33736 19.4422
190 64 3 0.41 7.32476 11.9991 9.61463
191 64 3 0.41 7.77882 10.5161 9.17625
192 64 5 -0.82 7.43466 11.3725 8.77804
193 65 3 0.41 -0.316846 3.74415 -1.39887
194 65 3 0.41 -1.4774 3.10217 -0.677977
195 65 5 -0.82 -0.839385 2.86267 -1.39407
196 66 3 0.41 -1.45324 0.244034 2.53937
197 66 3 0.41 11.4049 -0.694954 2.084
198 66 5 -0.82 11.7835 0.213885 1.87582
199 67 3 0.41 5.31419 10.5468 11.5352
200 67 3 0.41 6.91789 10.0553 11.5617
201 67 5 -0.82 5.95223 9.76785 11.3526
202 68 3 0.41 5.02431 4.21108 20.0011
203 68 3 0.41 5.03348 5.10403 18.7284
204 68 5 -0.82 4.57906 4.2953 19.0673
205 69 3 0.41 11.9145 -0.802067 -22.4202
206 69 3 0.41 11.5718 11.6168 -22.3547
207 69 5 -0.82 11.1376 -1.48408 -22.3529
208 70 3 0.41 7.62615 4.02389 -19.8106
209 70 3 0.41 8.26416 2.61852 -18.9967
210 70 5 -0.82 8.12444 3.09515 -19.9124
211 71 3 0.41 2.26672 3.38108 -0.791719
212 71 3 0.41 1.6167 1.91558 -0.807204
213 71 5 -0.82 2.41909 2.40676 -1.06785
214 72 3 0.41 0.754201 6.78572 18.7841
215 72 3 0.41 1.34286 6.96597 17.3034
216 72 5 -0.82 0.71579 7.34704 17.981
217 73 3 0.41 7.95909 10.2991 -9.38039
218 73 3 0.41 9.02316 9.74529 -10.4384
219 73 5 -0.82 8.2731 10.4294 -10.3356
220 74 3 0.41 4.1804 6.49554 -2.2754
221 74 3 0.41 4.54855 7.96942 -1.73483
222 74 5 -0.82 4.70638 7.33959 -2.50807
223 75 3 0.41 11.8882 4.2324 -6.01452
224 75 3 0.41 10.9652 4.24247 -4.64514
225 75 5 -0.82 11.3879 3.653 -5.39954
226 76 3 0.41 4.85941 12.1106 -15.1374
227 76 3 0.41 3.71235 11.1195 -14.4569
228 76 5 -0.82 4.13741 12.0375 -14.4565
229 77 3 0.41 10.0362 7.60159 16.5703
230 77 3 0.41 10.4681 8.77702 15.5882
231 77 5 -0.82 10.7867 7.88318 16.0097
232 78 3 0.41 10.7629 6.54438 -8.48431
233 78 3 0.41 11.8907 6.4565 -9.60517
234 78 5 -0.82 11.0564 6.00458 -9.29027
235 79 3 0.41 12.4399 -1.24339 6.70726
236 79 3 0.41 10.9864 12.0533 6.9871
237 79 5 -0.82 11.9664 11.8864 6.71488
238 80 3 0.41 11.6601 -0.800775 -17.9167
239 80 3 0.41 11.8564 0.00382912 -16.5846
240 80 5 -0.82 11.9117 -0.967361 -16.9698
241 81 3 0.41 -1.08983 -0.79109 -4.26659
242 81 3 0.41 11.3912 -1.38985 -3.95845
243 81 5 -0.82 11.9716 -0.546544 -3.82182
244 82 3 0.41 4.38597 3.8054 0.0591661
245 82 3 0.41 3.24571 3.95516 1.21362
246 82 5 -0.82 3.82063 4.49654 0.557612
247 83 3 0.41 9.02843 8.48812 -1.64434
248 83 3 0.41 10.5345 9.15833 -1.64008
249 83 5 -0.82 9.9959 8.35006 -1.36432
250 84 3 0.41 2.60584 8.92982 4.72503
251 84 3 0.41 3.87846 9.75188 4.84736
252 84 5 -0.82 2.94857 9.86863 4.59302
253 85 3 0.41 7.01953 8.8127 22.9978
254 85 3 0.41 6.87068 8.00171 21.5809
255 85 5 -0.82 7.41509 8.6992 22.0949
256 86 3 0.41 10.7382 4.80124 -17.6277
257 86 3 0.41 11.4717 6.15541 -18.322
258 86 5 -0.82 10.9375 5.31263 -18.5087
259 87 3 0.41 7.70121 10.5428 0.321023
260 87 3 0.41 6.27089 11.3752 0.279044
261 87 5 -0.82 7.03994 11.0814 -0.339776
262 88 3 0.41 10.0282 4.38172 15.4568
263 88 3 0.41 10.2431 5.9558 15.2813
264 88 5 -0.82 10.0558 5.25698 15.961
265 89 3 0.41 10.3196 5.51846 -21.8119
266 89 3 0.41 9.07442 4.68235 -21.3301
267 89 5 -0.82 10.0103 4.57259 -21.6434
268 90 3 0.41 6.13758 4.17763 -11.9639
269 90 3 0.41 6.65603 2.59104 -12.0246
270 90 5 -0.82 6.97516 3.56231 -11.8651
271 91 3 0.41 11.4358 10.3294 6.38498
272 91 3 0.41 11.706 8.9201 5.58351
273 91 5 -0.82 10.9675 9.56859 5.84388
274 92 3 0.41 7.12376 0.743894 3.95823
275 92 3 0.41 8.06608 -0.493923 4.27361
276 92 5 -0.82 8.09837 0.47013 4.1979
277 93 3 0.41 6.54022 4.17599 12.2696
278 93 3 0.41 7.82138 3.10952 12.4336
279 93 5 -0.82 7.50455 3.94977 11.9078
280 94 3 0.41 -0.225642 -0.0346914 4.5613
281 94 3 0.41 0.478076 -0.522425 3.24366
282 94 5 -0.82 -0.159637 0.24249 3.58787
283 95 3 0.41 7.68935 -0.41067 11.0682
284 95 3 0.41 7.5017 12.4105 12.1069
285 95 5 -0.82 7.29741 -1.32203 11.1369
286 96 3 0.41 -0.0480042 9.65031 10.4078
287 96 3 0.41 0.903373 8.51835 10.8489
288 96 5 -0.82 -0.0794789 8.66486 10.5933
289 97 3 0.41 7.38749 0.251835 14.7048
290 97 3 0.41 6.08348 0.349926 15.6837
291 97 5 -0.82 6.59098 -0.289665 15.0626
292 98 3 0.41 6.96255 11.5048 -19.3908
293 98 3 0.41 6.28821 -1.49869 -20.407
294 98 5 -0.82 6.17552 11.5842 -19.9834
295 99 3 0.41 11.5654 8.94553 -3.72629
296 99 3 0.41 -1.04826 8.50131 -3.08921
297 99 5 -0.82 -1.44913 9.06259 -3.81668
298 100 3 0.41 5.13488 8.7915 2.54304
299 100 3 0.41 5.31181 10.2843 2.21254
300 100 5 -0.82 5.83639 9.5362 2.65934
301 101 3 0.41 8.92682 4.76918 -5.3399
302 101 3 0.41 7.84816 5.00922 -6.42455
303 101 5 -0.82 8.81494 5.1096 -6.30131
304 102 3 0.41 8.55306 11.5059 -21.8314
305 102 3 0.41 9.33745 -1.30942 -22.4644
306 102 5 -0.82 8.40545 12.318 -22.4131
307 103 3 0.41 5.82129 9.37553 18.3634
308 103 3 0.41 4.45958 8.52577 18.3029
309 103 5 -0.82 5.15227 9.0082 17.6685
310 104 3 0.41 10.9395 1.71396 -17.251
311 104 3 0.41 11.1671 2.4485 -15.8104
312 104 5 -0.82 11.3406 1.6262 -16.3182
313 105 3 0.41 8.5552 11.666 5.48865
314 105 3 0.41 9.49641 11.0176 4.45751
315 105 5 -0.82 9.39507 11.8764 4.95526
316 106 3 0.41 2.95412 5.75881 -8.50926
317 106 3 0.41 1.54241 5.3569 -9.14534
318 106 5 -0.82 2.21687 5.11756 -8.43685
319 107 3 0.41 1.5169 10.9349 -8.03822
320 107 3 0.41 0.115996 11.6684 -8.28886
321 107 5 -0.82 0.719216 10.9492 -8.64137
322 108 3 0.41 0.948846 6.50248 -19.7245
323 108 3 0.41 1.83465 7.66029 -19.0284
324 108 5 -0.82 1.57899 7.29997 -19.9182
325 109 3 0.41 3.52584 8.86633 -18.2112
326 109 3 0.41 3.90973 9.26028 -19.742
327 109 5 -0.82 4.22859 8.82103 -18.9127
328 110 3 0.41 6.53679 12.4986 2.72815
329 110 3 0.41 7.43176 11.3208 3.00959
330 110 5 -0.82 7.46471 12.2023 2.57534
331 111 3 0.41 7.05488 5.9264 -9.36736
332 111 3 0.41 6.7852 4.73922 -8.43323
333 111 5 -0.82 7.2898 4.95422 -9.29021
334 112 3 0.41 10.5987 0.407299 -21.7877
335 112 3 0.41 10.7672 1.87702 -21.6911
336 112 5 -0.82 10.1908 1.2142 -22.1427
337 113 3 0.41 2.55924 6.04855 15.1448
338 113 3 0.41 2.75607 7.53305 15.9696
339 113 5 -0.82 2.64433 6.48132 16.0082
340 114 3 0.41 12.3828 8.98864 -15.6147
341 114 3 0.41 -1.27456 9.53823 -14.2217
342 114 5 -0.82 -0.968337 9.62829 -15.2062
343 115 3 0.41 5.45021 9.21563 9.74791
344 115 3 0.41 5.38828 7.89873 8.92317
345 115 5 -0.82 5.44865 8.91294 8.81694
346 116 3 0.41 6.77553 4.13366 21.7068
347 116 3 0.41 5.46379 3.46338 22.2386
348 116 5 -0.82 5.78047 4.20351 21.5848
349 117 3 0.41 11.3624 6.98957 -13.5395
350 117 3 0.41 11.3325 6.80066 -15.1266
351 117 5 -0.82 10.9028 6.48175 -14.2704
352 118 3 0.41 3.14246 7.4851 -0.0877943
353 118 3 0.41 3.20143 5.83112 -0.0159665
354 118 5 -0.82 2.74305 6.62692 -0.458013
355 119 3 0.41 3.40393 -1.02399 -3.5013
356 119 3 0.41 2.9146 -0.791916 -5.08091
357 119 5 -0.82 3.6872 -1.0979 -4.47567
358 120 3 0.41 2.19197 0.718813 7.55922
359 120 3 0.41 1.52154 2.16195 8.126
360 120 5 -0.82 1.51858 1.09946 8.18718
361 121 3 0.41 6.82395 7.4902 -10.3796
362 121 3 0.41 6.33331 6.49297 -11.549
363 121 5 -0.82 7.11818 7.14658 -11.3062
364 122 3 0.41 12.1995 -0.867029 15.8364
365 122 3 0.41 11.7635 -0.618165 14.3414
366 122 5 -0.82 12.4443 -0.297526 15.0156
367 123 3 0.41 0.731972 10.4266 3.22779
368 123 3 0.41 0.418573 10.3913 4.72551
369 123 5 -0.82 0.182416 9.88777 3.88784
370 124 3 0.41 9.41379 6.50107 -6.8644
371 124 3 0.41 10.6697 7.46167 -6.77777
372 124 5 -0.82 9.82067 7.29097 -7.3885
373 125 3 0.41 8.24515 11.2986 -12.1859
374 125 3 0.41 9.3373 11.6883 -13.4081
375 125 5 -0.82 8.44953 11.2895 -13.1638
376 126 3 0.41 12.2564 11.8339 -12.2736
377 126 3 0.41 11.5795 11.9452 -13.803
378 126 5 -0.82 12.0566 12.4278 -13.0557
379 127 3 0.41 7.05401 6.5343 17.8835
380 127 3 0.41 5.60061 7.11572 17.9741
381 127 5 -0.82 6.1014 6.27174 18.0841
382 128 3 0.41 9.30927 1.12562 8.21827
383 128 3 0.41 7.77073 1.01739 8.59133
384 128 5 -0.82 8.4533 0.633348 7.92142
385 129 3 0.41 6.1915 2.88406 -1.94079
386 129 3 0.41 5.25061 2.45549 -3.14282
387 129 5 -0.82 6.03128 3.0636 -2.95167
388 130 3 0.41 -1.17145 3.95455 -8.4721
389 130 3 0.41 12.3254 3.12317 -9.82886
390 130 5 -0.82 -1.31021 3.03674 -8.87725
391 131 3 0.41 0.610901 -1.07856 -18.0451
392 131 3 0.41 -0.405255 -1.24396 -16.8522
393 131 5 -0.82 0.610518 -1.20666 -17.0398
394 132 3 0.41 1.69081 7.69393 -6.94477
395 132 3 0.41 1.22219 6.50884 -6.03111
396 132 5 -0.82 1.21035 7.50468 -6.05313
397 133 3 0.41 5.38705 1.18147 6.91728
398 133 3 0.41 6.92305 0.905082 7.0614
399 133 5 -0.82 6.06119 0.490722 6.76465
400 134 3 0.41 12.0488 0.459053 0.20423
401 134 3 0.41 11.7022 -0.687461 -0.730631
402 134 5 -0.82 12.048 0.255433 -0.767512
403 135 3 0.41 7.7164 2.33034 -21.1944
404 135 3 0.41 8.38668 1.79385 -22.6194
405 135 5 -0.82 7.53341 1.87705 -22.1113
406 136 3 0.41 -0.0434729 9.53719 6.44213
407 136 3 0.41 0.540029 8.87258 7.56836
408 136 5 -0.82 -0.268195 8.77775 7.06097
409 137 3 0.41 8.98133 11.7437 8.02292
410 137 3 0.41 9.1441 -0.887634 7.87849
411 137 5 -0.82 9.76187 12.3549 7.84778
412 138 3 0.41 11.5758 5.3795 16.9772
413 138 3 0.41 -0.811461 5.05475 17.2925
414 138 5 -0.82 12.3546 5.57333 17.5869
415 139 3 0.41 10.1976 8.69035 22.0179
416 139 3 0.41 9.07223 9.72942 22.0669
417 139 5 -0.82 10.0838 9.66391 21.9416
418 140 3 0.41 2.44715 9.03544 -3.72449
419 140 3 0.41 1.57497 8.98638 -5.15971
420 140 5 -0.82 2.01077 9.57086 -4.43526
421 141 3 0.41 3.05071 -0.153608 -19.0866
422 141 3 0.41 3.61807 12.4727 -18.5349
423 141 5 -0.82 3.21729 -1.10722 -19.3808
424 142 3 0.41 9.3283 5.04026 -3.39014
425 142 3 0.41 10.7764 5.73868 -2.97231
426 142 5 -0.82 10.1397 5.53617 -3.74805
427 143 3 0.41 7.1294 3.48173 16.625
428 143 3 0.41 7.8729 3.26727 15.2991
429 143 5 -0.82 7.3432 3.99605 15.7763
430 144 3 0.41 -1.06608 1.21441 -9.89796
431 144 3 0.41 12.4887 -0.222399 -10.374
432 144 5 -0.82 -0.710405 0.37942 -10.351
433 145 3 0.41 3.09071 2.85649 -4.68192
434 145 3 0.41 4.70142 3.14712 -5.21889
435 145 5 -0.82 3.96931 2.42413 -5.04967
436 146 3 0.41 11.0286 0.519072 -5.13866
437 146 3 0.41 10.8548 1.96688 -5.47782
438 146 5 -0.82 10.5225 1.08583 -5.78
439 147 3 0.41 10.5619 4.4599 -8.50935
440 147 3 0.41 9.33979 4.08652 -7.7639
441 147 5 -0.82 9.81894 3.79098 -8.57045
442 148 3 0.41 0.657111 -1.02904 21.4527
443 148 3 0.41 1.18587 -0.64503 19.9911
444 148 5 -0.82 1.48244 -0.517124 20.9488
445 149 3 0.41 1.44177 5.60417 -0.770475
446 149 3 0.41 0.423239 4.79207 0.0611502
447 149 5 -0.82 0.714686 4.88456 -0.880922
448 150 3 0.41 12.0972 8.7477 -9.14914
449 150 3 0.41 11.0493 9.03565 -10.225
450 150 5 -0.82 11.3388 9.39688 -9.36821
451 151 3 0.41 -0.525715 7.24315 9.83503
452 151 3 0.41 0.600842 6.747 8.79585
453 151 5 -0.82 -0.289711 6.51431 9.15509
454 152 3 0.41 6.15226 11.8672 5.01756
455 152 3 0.41 6.43947 12.3017 6.48172
456 152 5 -0.82 6.72761 11.6362 5.79725
457 153 3 0.41 10.2987 3.06654 9.55258
458 153 3 0.41 9.14263 4.05745 8.92349
459 153 5 -0.82 9.72997 3.8291 9.77359
460 154 3 0.41 8.0942 1.23416 -18.1972
461 154 3 0.41 8.08577 1.60983 -16.6793
462 154 5 -0.82 8.40333 1.96239 -17.5404
463 155 3 0.41 4.01144 12.4071 15.1815
464 155 3 0.41 5.11205 -0.839716 14.4964
465 155 5 -0.82 4.10924 -0.993285 14.3933
466 156 3 0.41 -0.741669 3.36026 -19.226
467 156 3 0.41 -1.40827 4.72217 -19.2863
468 156 5 -0.82 -0.5616 4.31441 -18.9695
469 157 3 0.41 5.04373 12.4126 19.0041
470 157 3 0.41 5.50146 0.005999 19.1257
471 157 5 -0.82 5.84848 -0.931715 18.9071
472 158 3 0.41 10.7152 9.16706 -12.2305
473 158 3 0.41 12.2332 9.81917 -12.5911
474 158 5 -0.82 11.2673 9.68225 -12.959
475 159 3 0.41 -0.570656 7.75281 -12.5244
476 159 3 0.41 -0.839517 6.57903 -11.5554
477 159 5 -0.82 -1.31943 7.41704 -11.9402
478 160 3 0.41 7.07013 9.31313 17.1192
479 160 3 0.41 7.8607 8.10738 16.283
480 160 5 -0.82 7.94795 8.94193 16.8435
481 161 3 0.41 9.47816 -0.570658 -19.2244
482 161 3 0.41 10.5867 0.571791 -19.4711
483 161 5 -0.82 10.4648 -0.426141 -19.5146
484 162 3 0.41 8.80783 7.88839 -11.6195
485 162 3 0.41 10.1657 7.36551 -11.1472
486 162 5 -0.82 9.73837 8.22096 -11.4498
487 163 3 0.41 9.32002 8.47963 -15.2704
488 163 3 0.41 10.3239 9.31026 -14.2849
489 163 5 -0.82 10.1196 9.10505 -15.2359
490 164 3 0.41 3.44269 6.80056 -6.09171
491 164 3 0.41 4.96426 7.43982 -6.09227
492 164 5 -0.82 4.01488 7.55805 -5.79642
493 165 3 0.41 10.7645 6.48 21.2638
494 165 3 0.41 11.4977 6.68152 22.7359
495 165 5 -0.82 10.757 7.05018 22.0864
496 166 3 0.41 10.3334 1.16644 1.64428
497 166 3 0.41 9.28604 1.30908 2.79141
498 166 5 -0.82 9.56699 1.74941 1.93137
499 167 3 0.41 2.81488 4.49492 -11.9594
500 167 3 0.41 1.82911 5.3652 -12.7826
501 167 5 -0.82 2.4803 5.43539 -12.0085
502 168 3 0.41 11.7665 12.4981 -8.79512
503 168 3 0.41 11.6282 11.1352 -9.60296
504 168 5 -0.82 11.8055 12.1256 -9.72758
505 169 3 0.41 -0.237406 5.56935 2.46256
506 169 3 0.41 -1.44904 6.37862 1.72539
507 169 5 -0.82 -0.548045 5.90296 1.54362
508 170 3 0.41 9.92373 0.997767 5.5957
509 170 3 0.41 10.2579 -0.552665 5.1667
510 170 5 -0.82 10.6689 0.404856 5.24701
511 171 3 0.41 7.05859 6.40079 9.69831
512 171 3 0.41 8.498 6.72801 8.93114
513 171 5 -0.82 8.07355 6.59381 9.85435
514 172 3 0.41 -1.26627 7.63935 12.5184
515 172 3 0.41 -1.40091 9.0041 13.2281
516 172 5 -0.82 12.0298 8.19872 12.9426
517 173 3 0.41 5.70133 0.167169 8.51244
518 173 3 0.41 4.87601 -1.15791 8.89184
519 173 5 -0.82 5.21452 -0.247424 9.28494
520 174 3 0.41 10.9946 4.51519 20.4387
521 174 3 0.41 11.6502 5.40817 19.22
522 174 5 -0.82 10.897 5.34857 19.9261
523 175 3 0.41 8.71691 1.98281 4.77782
524 175 3 0.41 9.94402 2.93795 4.54491
525 175 5 -0.82 9.13418 2.83031 5.13389
526 176 3 0.41 7.42301 5.48993 -2.79014
527 176 3 0.41 7.10521 5.54839 -1.15144
528 176 5 -0.82 7.79214 5.29101 -1.86696
529 177 3 0.41 7.36087 11.2381 13.8026
530 177 3 0.41 8.63908 12.2217 14.2582
531 177 5 -0.82 8.16509 11.7782 13.4664
532 178 3 0.41 6.83713 10.5605 -11.3036
533 178 3 0.41 5.42485 11.4806 -11.6947
534 178 5 -0.82 6.00572 10.65 -11.8266
535 179 3 0.41 12.3972 10.7059 -21.0333
536 179 3 0.41 12.1225 9.33503 -21.9162
537 179 5 -0.82 -1.36 10.2327 -21.9039
538 180 3 0.41 2.57311 3.96644 3.3502
539 180 3 0.41 4.07332 4.35084 3.7591
540 180 5 -0.82 3.13269 4.35019 4.12214
541 181 3 0.41 6.92981 0.893728 -5.22863
542 181 3 0.41 5.36596 0.989557 -4.64221
543 181 5 -0.82 6.20806 0.422232 -4.69011
544 182 3 0.41 9.79593 5.52275 -10.3262
545 182 3 0.41 10.4168 4.73639 -11.6632
546 182 5 -0.82 9.513 5.15416 -11.2376
547 183 3 0.41 1.85478 5.38254 -17.0238
548 183 3 0.41 0.454966 4.73372 -17.6569
549 183 5 -0.82 0.835628 5.30361 -16.9102
550 184 3 0.41 2.86828 5.45787 10.2315
551 184 3 0.41 1.98562 6.33599 11.3512
552 184 5 -0.82 2.00853 5.48086 10.8062
553 185 3 0.41 -0.589962 5.01633 -14.1514
554 185 3 0.41 0.795848 5.18442 -14.9049
555 185 5 -0.82 0.385146 4.9633 -14.0063
556 186 3 0.41 0.0554904 5.98507 -3.67537
557 186 3 0.41 -1.16927 5.09212 -3.84839
558 186 5 -0.82 -0.531877 5.6658 -4.39298
559 187 3 0.41 5.31175 1.26668 -1.11907
560 187 3 0.41 3.7356 1.01964 -1.60769
561 187 5 -0.82 4.70839 0.887679 -1.82782
562 188 3 0.41 3.5361 -1.30356 -20.8959
563 188 3 0.41 4.60858 -1.0968 -22.1636
564 188 5 -0.82 3.66582 -1.37782 -21.9402
565 189 3 0.41 3.96254 10.3703 14.061
566 189 3 0.41 2.61197 10.8116 13.1036
567 189 5 -0.82 3.07797 10.042 13.6161
568 190 3 0.41 2.55891 9.22152 15.1063
569 190 3 0.41 3.11909 9.89295 16.4779
570 190 5 -0.82 2.6904 9.06164 16.1013
571 191 3 0.41 3.71199 3.04478 16.8205
572 191 3 0.41 3.62194 3.5742 18.2201
573 191 5 -0.82 3.02352 3.02928 17.5781
574 192 3 0.41 7.37715 10.6731 19.5514
575 192 3 0.41 6.30345 9.6308 20.1544
576 192 5 -0.82 6.87934 9.82059 19.3378
577 193 3 0.41 2.97181 11.9424 19.263
578 193 3 0.41 3.53792 10.7178 20.1269
579 193 5 -0.82 3.78927 11.4425 19.4972
580 194 3 0.41 -0.859309 10.1838 15.5191
581 194 3 0.41 0.351018 10.2853 16.4852
582 194 5 -0.82 -0.490983 9.78445 16.3613
583 195 3 0.41 1.71921 1.59731 14.7373
584 195 3 0.41 2.05841 2.53012 16.0058
585 195 5 -0.82 2.01278 2.52742 14.9856
586 196 3 0.41 9.20844 9.11973 -21.624
587 196 3 0.41 7.79093 9.40072 -20.8406
588 196 5 -0.82 8.44075 9.72407 -21.6004
589 197 3 0.41 9.28117 9.70079 6.40582
590 197 3 0.41 8.63608 8.55914 7.15403
591 197 5 -0.82 8.40538 9.41581 6.77387
592 198 3 0.41 9.68866 1.05326 -10.3711
593 198 3 0.41 10.1414 2.03981 -11.5192
594 198 5 -0.82 9.35177 1.84433 -10.9324
595 199 3 0.41 -0.741509 9.78822 -5.43373
596 199 3 0.41 -0.210304 9.37173 -6.86775
597 199 5 -0.82 -0.523579 10.1559 -6.32436
598 200 3 0.41 2.38148 9.79302 8.35647
599 200 3 0.41 2.67317 9.98398 6.76718
600 200 5 -0.82 2.2879 9.31836 7.49236
601 201 3 0.41 4.90262 1.81216 14.916
602 201 3 0.41 3.62283 2.33734 14.0233
603 201 5 -0.82 4.54733 1.9964 13.9842
604 202 3 0.41 6.26987 4.77451 -21.7454
605 202 3 0.41 7.13078 6.0669 -22.084
606 202 5 -0.82 7.18439 5.02499 -22.0152
607 203 3 0.41 1.25302 5.33988 16.6247
608 203 3 0.41 1.52323 3.99627 17.2535
609 203 5 -0.82 0.778583 4.49091 16.821
610 204 3 0.41 4.23169 5.60164 -12.1547
611 204 3 0.41 4.78166 5.77605 -10.5999
612 204 5 -0.82 5.06076 5.49609 -11.5636
613 205 3 0.41 10.3531 -0.298182 -13.7639
614 205 3 0.41 9.35638 -0.0966915 -12.5334
615 205 5 -0.82 9.51836 0.194941 -13.4923
616 206 3 0.41 2.86275 4.12153 5.7244
617 206 3 0.41 2.01833 4.35543 7.039
618 206 5 -0.82 2.90269 4.05253 6.74902
619 207 3 0.41 -0.708955 6.986 5.63979
620 207 3 0.41 -0.439488 6.49123 7.0852
621 207 5 -0.82 -0.707631 6.12558 6.14612
622 208 3 0.41 0.258036 -0.87017 0.0803948
623 208 3 0.41 0.438956 12.0729 -1.142
624 208 5 -0.82 0.477043 12.1703 -0.145831
625 209 3 0.41 7.96519 10.4021 -17.7441
626 209 3 0.41 8.31787 11.9509 -17.9576
627 209 5 -0.82 8.32366 11.031 -18.4315
628 210 3 0.41 11.0897 7.09308 11.6937
629 210 3 0.41 10.8319 7.25252 10.0331
630 210 5 -0.82 10.7767 6.61704 10.8191
631 211 3 0.41 5.93837 1.93146 17.0275
632 211 3 0.41 4.49012 0.956782 17.0079
633 211 5 -0.82 5.21805 1.42417 16.46
634 212 3 0.41 0.135713 1.04523 21.7318
635 212 3 0.41 -0.506136 2.4317 21.8704
636 212 5 -0.82 -0.712018 1.50917 21.4901
637 213 3 0.41 0.0192957 7.55864 1.09638
638 213 3 0.41 1.07854 8.92074 1.16895
639 213 5 -0.82 0.0672845 8.61425 1.1219
640 214 3 0.41 10.0689 1.13722 -3.08137
641 214 3 0.41 10.1517 2.34852 -2.04793
642 214 5 -0.82 10.6079 1.94964 -2.91628
643 215 3 0.41 9.69489 9.94287 -18.3184
644 215 3 0.41 10.3656 9.27352 -16.8983
645 215 5 -0.82 10.526 9.59872 -17.881
646 216 3 0.41 2.31833 7.76676 7.76708
647 216 3 0.41 2.88483 6.31228 8.44519
648 216 5 -0.82 2.14767 6.73134 7.90395
649 217 3 0.41 8.04673 0.220408 -20.5554
650 217 3 0.41 6.75652 0.498575 -19.6209
651 217 5 -0.82 7.6503 -0.00695145 -19.6269
652 218 3 0.41 10.4724 -1.4589 9.54579
653 218 3 0.41 11.8607 -0.643537 9.95907
654 218 5 -0.82 10.8825 -0.797166 10.2332
655 219 3 0.41 3.97192 6.90093 -14.5955
656 219 3 0.41 2.96939 5.66951 -14.9291
657 219 5 -0.82 2.99029 6.6613 -14.8836
658 220 3 0.41 9.20513 -0.00813751 15.244
659 220 3 0.41 9.39576 -0.683248 16.5659
660 220 5 -0.82 9.46226 -0.925968 15.6236
661 221 3 0.41 -1.14097 6.90638 -21.8491
662 221 3 0.41 0.479812 7.17907 -21.7928
663 221 5 -0.82 -0.210429 6.5075 -22.0738
664 222 3 0.41 4.4911 2.97347 -21.9562
665 222 3 0.41 5.05349 1.40147 -21.9008
666 222 5 -0.82 4.26037 2.0281 -22.142
667 223 3 0.41 2.38802 2.8075 -10.0349
668 223 3 0.41 1.20487 2.93845 -11.2907
669 223 5 -0.82 1.47681 3.16635 -10.3366
670 224 3 0.41 8.61152 4.71065 1.97693
671 224 3 0.41 8.48608 3.13866 1.81579
672 224 5 -0.82 7.9263 4.03349 1.87222
673 225 3 0.41 4.09194 -1.00401 4.09167
674 225 3 0.41 4.34323 11.4996 3.90236
675 225 5 -0.82 4.87663 12.3592 3.87228
676 226 3 0.41 7.40799 3.65622 18.3555
677 226 3 0.41 6.9757 2.33855 19.0654
678 226 5 -0.82 6.83684 2.83632 18.1908
679 227 3 0.41 8.27223 1.16273 20.9737
680 227 3 0.41 6.60889 0.998549 21.0329
681 227 5 -0.82 7.36057 1.50792 20.5393
682 228 3 0.41 1.97525 12.1185 -11.1993
683 228 3 0.41 1.80415 11.0803 -10.1032
684 228 5 -0.82 2.19002 11.1359 -11.0496
685 229 3 0.41 2.92752 7.63711 -21.1192
686 229 3 0.41 3.77746 8.34966 -22.1955
687 229 5 -0.82 3.6345 7.39371 -21.8397
688 230 3 0.41 3.45986 0.060312 1.96965
689 230 3 0.41 2.6998 0.382242 3.27354
690 230 5 -0.82 2.70999 0.679137 2.29702
691 231 3 0.41 1.68796 7.78378 -13.7604
692 231 3 0.41 1.11335 9.25831 -13.5757
693 231 5 -0.82 0.939718 8.30847 -13.3099
694 232 3 0.41 10.0233 11.4533 0.743038
695 232 3 0.41 8.95374 12.1782 1.76578
696 232 5 -0.82 9.86748 12.2555 1.36247
697 233 3 0.41 0.937352 8.00222 4.06998
698 233 3 0.41 1.12341 6.38447 3.94572
699 233 5 -0.82 1.57706 7.24699 3.83354
700 234 3 0.41 4.50912 4.22386 10.5647
701 234 3 0.41 4.61274 3.65647 12.0718
702 234 5 -0.82 4.49842 3.35761 11.0981
703 235 3 0.41 3.45821 2.80641 7.8632
704 235 3 0.41 4.72081 3.27224 8.80976
705 235 5 -0.82 4.16523 2.48683 8.54294
706 236 3 0.41 11.1725 8.47445 1.37916
707 236 3 0.41 10.2179 7.41386 2.07338
708 236 5 -0.82 11.1995 7.58524 1.90363
709 237 3 0.41 0.0849148 3.37948 9.06201
710 237 3 0.41 1.22893 4.49428 9.15842
711 237 5 -0.82 0.831187 3.77688 8.54134
712 238 3 0.41 -0.065776 5.69631 11.0973
713 238 3 0.41 -1.40858 4.95493 11.3836
714 238 5 -0.82 -0.782194 5.63046 11.8126
715 239 3 0.41 9.6425 7.34361 -4.17403
716 239 3 0.41 8.89418 8.44175 -3.50977
717 239 5 -0.82 9.7095 8.34732 -4.10196
718 240 3 0.41 11.4045 4.81771 -14.8578
719 240 3 0.41 11.7455 3.58487 -14.0858
720 240 5 -0.82 11.9439 4.00438 -15.0348
721 241 3 0.41 8.54692 8.80273 0.459667
722 241 3 0.41 8.8588 9.12429 1.96189
723 241 5 -0.82 8.70899 9.57827 1.04507
724 242 3 0.41 0.7953 2.72183 -3.9572
725 242 3 0.41 1.77965 2.80762 -2.70974
726 242 5 -0.82 1.6391 3.25749 -3.65035
727 243 3 0.41 3.74591 4.74012 -21.0245
728 243 3 0.41 4.10756 5.83133 -22.0703
729 243 5 -0.82 4.47695 4.9411 -21.7163
730 244 3 0.41 11.8421 1.13197 16.1164
731 244 3 0.41 10.5656 2.05628 16.1229
732 244 5 -0.82 11.3638 1.83273 16.6912
733 245 3 0.41 6.65209 0.400538 -22.1155
734 245 3 0.41 6.9449 -1.03321 -22.283
735 245 5 -0.82 6.11861 -0.438691 -22.1252
736 246 3 0.41 5.61449 1.5282 12.7767
737 246 3 0.41 7.08882 1.01011 12.5123
738 246 5 -0.82 6.20584 1.11739 12.0529
739 247 3 0.41 2.51389 5.90648 22.4949
740 247 3 0.41 2.33952 4.30236 22.7551
741 247 5 -0.82 2.56794 4.95662 22.0452
742 248 3 0.41 12.3247 2.69249 11.1076
743 248 3 0.41 -0.158293 2.6679 11.2118
744 248 5 -0.82 -0.831467 2.83204 10.4909
745 249 3 0.41 -0.588733 2.78801 -16.1091
746 249 3 0.41 0.0661486 1.5783 -15.3522
747 249 5 -0.82 0.262256 2.23253 -16.114
748 250 3 0.41 4.3243 1.1339 20.712
749 250 3 0.41 4.5234 2.26614 19.531
750 250 5 -0.82 4.44384 1.28116 19.6788
751 251 3 0.41 9.23017 0.767554 22.8888
752 251 3 0.41 10.1234 -0.102717 21.8745