ITEM: TIMESTEP
50000
ITEM: NUMBER OF ATOMS
1360
ITEM: BOX BOUNDS pp pp pp
-1.5000000000000000e+00 1.2500000000000000e+01
-1.5000000000000000e+00 1.2500000000000000e+01
-2.7500000000000000e+01 2.7500000000000000e+01
ITEM: ATOMS id mol type q x y z
1 1 3 0.41 -0.777481 0.465595 4.74461
2 1 3 0.41 0.373357 1.39505 4.26744
3 1 5 -0.82 -0.612556 1.39676 4.33379
4 2 3 0.41 3.31756 -1.35243 -7.71102
5 2 3 0.41 4.28509 -0.432157 -8.71028
6 2 5 -0.82 3.80211 -1.30533 -8.5895
7 3 3 0.41 10.6693 0.887516 10.377
8 3 3 0.41 11.9745 -0.0525297 10.3752
9 3 5 -0.82 10.958 -0.0335567 10.61
10 4 3 0.41 4.29207 6.03815 -14.4328
11 4 3 0.41 5.11572 5.32924 -15.4921
12 4 5 -0.82 4.23935 5.82837 -15.4312
13 5 3 0.41 -0.623327 6.20152 -10.4292
14 5 3 0.41 0.911791 6.20893 -9.88343
15 5 5 -0.82 0.348406 5.92303 -10.6326
16 6 3 0.41 11.1782 5.24543 -14.7842
17 6 3 0.41 12.4744 6.15307 -14.6734
18 6 5 -0.82 12.1462 5.26467 -15.038
19 7 3 0.41 5.01126 5.00707 -21.7414
20 7 3 0.41 3.88684 6.14988 -21.86
21 7 5 -0.82 4.10036 5.19969 -22.1374
22 8 3 0.41 -1.34032 4.52393 13.5013
23 8 3 0.41 11.4601 4.3548 14.6257
24 8 5 -0.82 12.0036 5.03895 14.0538
25 9 3 0.41 12.4465 -0.464284 -11.1908
26 9 3 0.41 11.7243 0.896488 -11.3468
27 9 5 -0.82 11.8255 -0.0172063 -11.7448
28 10 3 0.41 2.3099 12.1243 -2.36876
29 10 3 0.41 0.890603 -1.30661 -2.49026
30 10 5 -0.82 1.66419 -1.37373 -1.84173
31 11 3 0.41 4.07914 -1.14145 -5.20212
32 11 3 0.41 2.79493 -0.850305 -6.1407
33 11 5 -0.82 3.29619 12.3665 -5.62671
34 12 3 0.41 8.9723 9.96869 -15.4252
35 12 3 0.41 8.37328 9.39951 -16.7315
36 12 5 -0.82 9.24638 9.37192 -16.1849
37 13 3 0.41 11.2591 -1.25097 13.923
38 13 3 0.41 10.6659 -1.16827 12.5252
39 13 5 -0.82 11.2035 12.1916 13.0696
40 14 3 0.41 6.67865 10.9033 -13.845
41 14 3 0.41 5.69911 9.51294 -14.02
42 14 5 -0.82 6.68496 9.84474 -13.9491
43 15 3 0.41 0.530687 1.62505 14.639
44 15 3 0.41 1.54519 1.38348 16.011
45 15 5 -0.82 0.969114 0.946473 15.2594
46 16 3 0.41 5.95306 1.26978 19.3255
47 16 3 0.41 5.97584 0.195137 20.6362
48 16 5 -0.82 5.52652 0.418483 19.7341
49 17 3 0.41 6.4551 5.89223 19.1355
50 17 3 0.41 7.81677 5.99536 18.334
51 17 5 -0.82 7.13489 6.5651 18.8338
52 18 3 0.41 11.1966 10.6063 -17.9739
53 18 3 0.41 10.5007 10.1581 -16.5972
54 18 5 -0.82 11.0857 10.9173 -16.9888
55 19 3 0.41 7.87668 8.89995 5.11362
56 19 3 0.41 7.64732 7.30877 5.3317
57 19 5 -0.82 7.17102 8.12386 4.9631
58 20 3 0.41 12.1768 7.26411 -3.35353
59 20 3 0.41 11.0202 6.48248 -2.63728
60 20 5 -0.82 11.6184 6.40462 -3.46442
61 21 3 0.41 7.6767 4.4159 22.01
62 21 3 0.41 7.32025 5.95371 21.9553
63 21 5 -0.82 8.0391 5.32665 21.774
64 22 3 0.41 8.66644 0.695382 -15.7766
65 22 3 0.41 8.79555 0.106845 -17.2543
66 22 5 -0.82 8.10635 0.466223 -16.6149
67 23 3 0.41 5.72585 -0.489129 -22.3097
68 23 3 0.41 6.38111 12.3788 -21.3073
69 23 5 -0.82 6.29051 -1.33477 -22.2948
70 24 3 0.41 -0.488628 9.04093 -9.02379
71 24 3 0.41 0.904209 9.45688 -8.67178
72 24 5 -0.82 0.126822 9.82421 -9.22094
73 25 3 0.41 1.08951 4.28558 -15.6221
74 25 3 0.41 1.0228 4.41495 -14.1291
75 25 5 -0.82 0.794928 3.68312 -14.8225
76 26 3 0.41 9.44365 10.8762 -9.56793
77 26 3 0.41 10.4537 12.0259 -9.65903
78 26 5 -0.82 10.4082 11.0593 -9.73217
79 27 3 0.41 4.01276 11.9148 -16.0352
80 27 3 0.41 2.46641 11.7198 -15.7104
81 27 5 -0.82 3.14524 12.4583 -15.8956
82 28 3 0.41 -0.950079 5.0494 -8.83511
83 28 3 0.41 11.8201 5.17728 -7.75602
84 28 5 -0.82 12.0653 4.91652 -8.697
85 29 3 0.41 -0.556642 0.430266 18.4456
86 29 3 0.41 -0.761722 -0.906519 19.2327
87 29 5 -0.82 -0.125114 -0.151507 19.1518
88 30 3 0.41 8.60312 1.19693 8.45443
89 30 3 0.41 7.51438 0.473398 9.35996
90 30 5 -0.82 7.76379 0.663784 8.42375
91 31 3 0.41 -1.24497 -1.3255 -19.0989
92 31 3 0.41 -1.14164 11.1095 -19.3232
93 31 5 -0.82 12.1766 11.8545 -19.3432
94 32 3 0.41 1.20385 4.49048 -21.7562
95 32 3 0.41 2.73329 4.12115 -22.2465
96 32 5 -0.82 1.77002 3.79045 -22.1801
97 33 3 0.41 9.70413 1.4084 -3.27434
98 33 3 0.41 10.3779 0.286908 -2.41418
99 33 5 -0.82 10.5284 0.829488 -3.23149
100 34 3 0.41 7.98961 9.68586 0.268661
101 34 3 0.41 8.04277 8.83633 1.73344
102 34 5 -0.82 7.97376 9.7285 1.28484
103 35 3 0.41 9.46847 7.14588 10.786
104 35 3 0.41 8.22329 7.59263 11.6446
105 35 5 -0.82 8.77612 7.89146 10.8409
106 36 3 0.41 5.98941 4.97774 0.88927
107 36 3 0.41 5.48037 4.8223 -0.445436
108 36 5 -0.82 6.37997 4.89636 -0.0353002
109 37 3 0.41 -0.354806 11.3066 21.307
110 37 3 0.41 -0.384229 10.758 22.8756
111 37 5 -0.82 0.165205 11.2904 22.1997
112 38 3 0.41 8.55674 3.73478 2.01234
113 38 3 0.41 7.90244 4.7267 0.904621
114 38 5 -0.82 8.7481 4.21526 1.16919
115 39 3 0.41 8.63092 7.14647 -14.2546
116 39 3 0.41 9.72059 7.75385 -15.2607
117 39 5 -0.82 9.58626 7.02198 -14.5684
118 40 3 0.41 5.11127 8.89335 -20.6047
119 40 3 0.41 4.15729 9.6027 -19.5616
120 40 5 -0.82 5.08527 9.17717 -19.6059
121 41 3 0.41 3.34103 3.71845 -16.9942
122 41 3 0.41 3.34871 2.07706 -16.9623
123 41 5 -0.82 3.76136 2.92447 -16.5307
124 42 3 0.41 -0.0107959 12.3776 5.88534
125 42 3 0.41 -0.995372 12.1018 4.67802
126 42 5 -0.82 -0.28771 -1.23811 5.00483
127 43 3 0.41 -1.47243 2.61042 16.8604
128 43 3 0.41 -1.02637 3.95731 16.0046
129 43 5 -0.82 12.4308 3.61235 16.789
130 44 3 0.41 3.97136 5.67877 -19.3545
131 44 3 0.41 2.97104 6.44153 -20.3312
132 44 5 -0.82 3.00206 6.05227 -19.4239
133 45 3 0.41 8.68359 6.68401 1.36932
134 45 3 0.41 8.56833 6.35594 2.95194
135 45 5 -0.82 9.11054 6.92833 2.29282
136 46 3 0.41 11.1308 2.66318 11.6012
137 46 3 0.41 9.87759 3.42314 10.9867
138 46 5 -0.82 10.1426 2.60026 11.5149
139 47 3 0.41 10.1233 0.609581 1.37964
140 47 3 0.41 9.16968 0.0183432 0.378725
141 47 5 -0.82 9.48734 0.939476 0.69582
142 48 3 0.41 -0.11327 3.86079 19.1231
143 48 3 0.41 0.845498 2.71382 18.578
144 48 5 -0.82 0.255142 2.90284 19.3586
145 49 3 0.41 9.5579 -0.0954753 -4.79314
146 49 3 0.41 10.0727 -1.14206 -5.95394
147 49 5 -0.82 9.36558 -0.41832 -5.738
148 50 3 0.41 11.2413 12.1432 21.9835
149 50 3 0.41 12.114 12.4053 23.3317
150 50 5 -0.82 11.7118 -1.12739 22.5268
151 51 3 0.41 12.0409 11.7077 7.86838
152 51 3 0.41 -0.685372 11.6863 8.87449
153 51 5 -0.82 -1.03454 12.031 8.03156
154 52 3 0.41 -0.6338 4.56638 -11.8506
155 52 3 0.41 -1.07594 4.62812 -13.3593
156 52 5 -0.82 -1.41139 4.70139 -12.4427
157 53 3 0.41 -0.659585 6.64264 6.6812
158 53 3 0.41 0.555389 6.40689 7.67448
159 53 5 -0.82 0.294698 6.967 6.8768
160 54 3 0.41 6.12516 0.31316 13.6984
161 54 3 0.41 4.84857 1.25573 13.1877
162 54 5 -0.82 5.88138 1.18114 13.1869
163 55 3 0.41 12.2133 10.9955 13.4972
164 55 3 0.41 12.1416 9.46105 13.3737
165 55 5 -0.82 -1.21128 10.1725 13.7367
166 56 3 0.41 0.44889 7.27331 11.2684
167 56 3 0.41 -0.0894593 6.67872 9.91461
168 56 5 -0.82 -0.236163 7.49111 10.5493
169 57 3 0.41 5.16954 9.81103 -17.3758
170 57 3 0.41 6.02875 10.9883 -16.6219
171 57 5 -0.82 5.04995 10.7461 -16.9358
172 58 3 0.41 2.64795 10.8054 -19.9142
173 58 3 0.41 2.8514 11.0261 -21.6028
174 58 5 -0.82 2.68895 10.3581 -20.848
175 59 3 0.41 10.4196 9.98486 7.25044
176 59 3 0.41 10.5768 11.5513 6.79855
177 59 5 -0.82 11.004 10.6331 6.66987
178 60 3 0.41 1.06473 11.7314 0.968245
179 60 3 0.41 1.22578 10.3687 1.685
180 60 5 -0.82 1.42043 10.824 0.789925
181 61 3 0.41 9.76755 2.98851 15.9282
182 61 3 0.41 9.14489 3.29818 14.5056
183 61 5 -0.82 10.025 3.4096 15.0546
184 62 3 0.41 0.343466 8.73745 2.79292
185 62 3 0.41 -0.212605 9.72586 3.83288
186 62 5 -0.82 0.580379 9.6949 3.23573
187 63 3 0.41 3.01251 7.5963 18.2205
188 63 3 0.41 2.84997 6.28682 19.1444
189 63 5 -0.82 3.46883 7.05124 18.9437
190 64 3 0.41 5.90429 11.8672 5.81517
191 64 3 0.41 5.77035 10.5921 4.89406
192 64 5 -0.82 5.4918 10.9635 5.78831
193 65 3 0.41 2.64572 3.88582 -3.12598
194 65 3 0.41 1.84854 4.10834 -4.44034
195 65 5 -0.82 1.77888 3.59107 -3.58793
196 66 3 0.41 12.2394 6.88684 1.72083
197 66 3 0.41 -0.757217 5.73678 1.18818
198 66 5 -0.82 12.2479 5.98519 1.19404
199 67 3 0.41 5.01502 0.763271 8.67007
200 67 3 0.41 6.01673 -0.292015 8.33037
201 67 5 -0.82 5.07699 -0.228787 8.7432
202 68 3 0.41 5.70786 9.90749 19.0714
203 68 3 0.41 6.09109 8.23716 19.3449
204 68 5 -0.82 5.55402 9.07207 19.6283
205 69 3 0.41 12.4144 2.22781 -22.3407
206 69 3 0.41 -0.315932 1.23479 -21.8825
207 69 5 -0.82 -1.33702 1.27263 -22.046
208 70 3 0.41 8.83508 6.27846 -18.8818
209 70 3 0.41 7.57872 7.1286 -19.3056
210 70 5 -0.82 8.25447 6.46475 -19.6885
211 71 3 0.41 -0.167977 6.62692 3.2486
212 71 3 0.41 1.30681 6.37297 3.08925
213 71 5 -0.82 0.587528 6.98116 2.6556
214 72 3 0.41 2.26011 10.3038 15.9897
215 72 3 0.41 2.18587 9.44129 14.5653
216 72 5 -0.82 1.83929 10.2742 15.0995
217 73 3 0.41 11.6705 12.2244 -7.94347
218 73 3 0.41 12.1044 -0.250252 -7.54802
219 73 5 -0.82 12.0892 -0.929153 -8.35362
220 74 3 0.41 4.69766 -0.65727 0.368188
221 74 3 0.41 5.71603 0.650364 0.502285
222 74 5 -0.82 5.66524 -0.353428 0.279123
223 75 3 0.41 9.9675 4.02771 -6.11611
224 75 3 0.41 10.4994 3.05879 -5.08596
225 75 5 -0.82 10.5236 3.20931 -6.11451
226 76 3 0.41 4.64269 1.6222 -15.6384
227 76 3 0.41 3.89088 0.315774 -15.2383
228 76 5 -0.82 4.80528 0.682925 -15.3354
229 77 3 0.41 12.0842 12.2267 16.9636
230 77 3 0.41 11.1329 11.9042 15.8305
231 77 5 -0.82 12.061 12.3147 15.968
232 78 3 0.41 11.706 7.06807 -12.3694
233 78 3 0.41 10.4926 8.11568 -12.2203
234 78 5 -0.82 10.9404 7.3525 -11.6963
235 79 3 0.41 7.83439 10.5138 4.34031
236 79 3 0.41 8.86717 11.398 5.17231
237 79 5 -0.82 8.37858 10.4905 5.16176
238 80 3 0.41 1.24375 5.98459 -12.3812
239 80 3 0.41 2.55932 5.17531 -12.9304
240 80 5 -0.82 1.61685 5.45968 -13.184
241 81 3 0.41 12.1805 0.798289 -2.59613
242 81 3 0.41 -0.904582 -0.475358 -1.98588
243 81 5 -0.82 -0.898124 0.465123 -2.40266
244 82 3 0.41 3.35896 8.63376 -1.62127
245 82 3 0.41 2.42213 9.1815 -2.69514
246 82 5 -0.82 2.77225 8.28826 -2.37587
247 83 3 0.41 9.53615 10.5137 1.82297
248 83 3 0.41 10.1075 11.9981 1.56157
249 83 5 -0.82 10.4126 11.0367 1.81684
250 84 3 0.41 1.98172 1.64499 2.31638
251 84 3 0.41 1.19234 1.82407 0.84156
252 84 5 -0.82 2.05158 1.55675 1.3121
253 85 3 0.41 6.55249 -0.154194 23.0501
254 85 3 0.41 7.09289 12.4068 22.6767
255 85 5 -0.82 7.0593 -0.681397 22.326
256 86 3 0.41 -1.47851 8.61304 -16.4587
257 86 3 0.41 11.6844 8.31811 -17.8554
258 86 5 -0.82 12.3339 7.88955 -17.1553
259 87 3 0.41 4.44569 0.714344 3.09366
260 87 3 0.41 4.66817 -0.533626 1.99594
261 87 5 -0.82 4.73519 -0.280601 2.97822
262 88 3 0.41 9.6597 10.7439 14.5462
263 88 3 0.41 8.84821 11.6711 15.5933
264 88 5 -0.82 9.68593 11.1039 15.4859
265 89 3 0.41 10.3805 6.09828 -22.0548
266 89 3 0.41 9.09382 5.89505 -21.2378
267 89 5 -0.82 9.70179 5.39809 -21.821
268 90 3 0.41 8.91785 1.79048 -11.4393
269 90 3 0.41 9.27137 1.99085 -13.0463
270 90 5 -0.82 9.60389 2.15435 -12.0828
271 91 3 0.41 9.14416 -1.49065 8.01207
272 91 3 0.41 10.2421 -1.05995 9.07309
273 91 5 -0.82 10.147 -1.30559 8.10173
274 92 3 0.41 8.13467 4.44507 4.90398
275 92 3 0.41 6.67083 4.73036 4.40555
276 92 5 -0.82 7.62955 4.918 4.17543
277 93 3 0.41 5.68046 8.47492 8.96829
278 93 3 0.41 6.54559 7.27104 8.45702
279 93 5 -0.82 6.63939 8.26692 8.65846
280 94 3 0.41 -0.333485 4.87245 5.25278
281 94 3 0.41 12.3094 5.3497 4.41979
282 94 5 -0.82 -0.632709 5.25524 4.33923
283 95 3 0.41 8.25507 2.86108 12.2476
284 95 3 0.41 6.71698 2.1451 12.2743
285 95 5 -0.82 7.26669 2.96315 11.9486
286 96 3 0.41 1.50898 1.29566 10.2967
287 96 3 0.41 2.21109 -0.129748 10.1149
288 96 5 -0.82 2.04674 0.569518 10.8176
289 97 3 0.41 10.2576 5.21995 18.2805
290 97 3 0.41 11.3419 4.90531 17.0748
291 97 5 -0.82 10.81 5.63901 17.4914
292 98 3 0.41 9.5829 11.7689 -19.1552
293 98 3 0.41 8.15685 11.4848 -19.4552
294 98 5 -0.82 8.99683 10.9248 -19.1851
295 99 3 0.41 11.2172 -1.20748 -1.23078
296 99 3 0.41 9.65317 12.4416 -0.841836
297 99 5 -0.82 10.2652 -1.13814 -1.50948
298 100 3 0.41 4.09611 10.5544 1.14568
299 100 3 0.41 3.44125 11.4417 2.26842
300 100 5 -0.82 4.22987 10.7708 2.11561
301 101 3 0.41 7.41129 7.74025 -5.46073
302 101 3 0.41 6.94888 8.97888 -6.43397
303 101 5 -0.82 7.11255 8.00036 -6.39695
304 102 3 0.41 8.87322 0.0100056 -21.1413
305 102 3 0.41 8.17998 -0.981515 -22.3567
306 102 5 -0.82 9.04774 -0.630818 -21.9501
307 103 3 0.41 8.32779 5.78664 15.4167
308 103 3 0.41 9.61033 6.01275 16.3586
309 103 5 -0.82 8.90766 6.50833 15.8171
310 104 3 0.41 -1.26266 8.10219 -14.3546
311 104 3 0.41 -0.274084 8.00349 -13.1448
312 104 5 -0.82 -0.90647 7.40589 -13.6484
313 105 3 0.41 9.07295 -0.718402 5.37024
314 105 3 0.41 9.76177 -0.570962 4.02955
315 105 5 -0.82 9.74177 -1.23334 4.80866
316 106 3 0.41 4.63039 9.61916 -5.48262
317 106 3 0.41 4.10549 10.8053 -6.34695
318 106 5 -0.82 4.54736 9.87387 -6.43884
319 107 3 0.41 0.452956 11.507 -6.99897
320 107 3 0.41 -0.0962724 10.151 -6.29721
321 107 5 -0.82 0.44186 10.9889 -6.10198
322 108 3 0.41 -0.393376 8.88626 -18.962
323 108 3 0.41 0.822586 9.67368 -18.4801
324 108 5 -0.82 -0.0444261 9.83917 -18.9327
325 109 3 0.41 6.59464 10.0412 -22.2636
326 109 3 0.41 5.23585 10.9124 -22.1856
327 109 5 -0.82 5.56551 9.92092 -22.2511
328 110 3 0.41 11.5467 6.3366 -0.267908
329 110 3 0.41 10.0301 6.78925 -0.546634
330 110 5 -0.82 10.9221 6.55197 -1.02028
331 111 3 0.41 9.68356 5.39504 -14.1086
332 111 3 0.41 9.83654 3.9328 -14.7685
333 111 5 -0.82 9.79105 4.39575 -13.8946
334 112 3 0.41 11.394 4.01363 -21.267
335 112 3 0.41 -1.32276 4.87916 -21.8794
336 112 5 -0.82 12.1663 3.98877 -21.9523
337 113 3 0.41 5.43804 9.41891 13.6825
338 113 3 0.41 4.85524 10.0543 15.0771
339 113 5 -0.82 5.09726 10.2791 14.1167
340 114 3 0.41 4.29191 9.35132 -12.1741
341 114 3 0.41 4.31198 9.91376 -10.6365
342 114 5 -0.82 4.86814 9.76801 -11.4554
343 115 3 0.41 4.58454 11.7815 8.56008
344 115 3 0.41 5.19326 10.5808 9.49935
345 115 5 -0.82 4.74508 10.7708 8.54493
346 116 3 0.41 6.23754 6.98982 23.1989
347 116 3 0.41 5.20262 7.60029 22.0817
348 116 5 -0.82 6.16121 7.28576 22.2317
349 117 3 0.41 9.99884 11.6952 -14.4661
350 117 3 0.41 8.9446 12.3533 -13.5671
351 117 5 -0.82 9.00002 11.8522 -14.4703
352 118 3 0.41 4.10064 9.83642 -3.55739
353 118 3 0.41 5.63589 9.56114 -3.08032
354 118 5 -0.82 5.01704 9.55565 -3.89716
355 119 3 0.41 5.97588 5.3676 -7.3153
356 119 3 0.41 5.76881 4.85785 -8.74188
357 119 5 -0.82 5.79971 4.45946 -7.79327
358 120 3 0.41 2.43189 12.2386 8.50959
359 120 3 0.41 2.00519 11.4748 9.82661
360 120 5 -0.82 2.39831 12.3538 9.49479
361 121 3 0.41 10.8176 3.30871 -18.8071
362 121 3 0.41 10.8153 4.93751 -19.1747
363 121 5 -0.82 10.7519 3.98494 -19.5685
364 122 3 0.41 2.15416 4.81213 12.4275
365 122 3 0.41 0.641511 4.28534 12.0842
366 122 5 -0.82 1.45093 4.14454 12.73
367 123 3 0.41 11.7089 0.751475 2.79724
368 123 3 0.41 12.1096 -0.815581 2.17811
369 123 5 -0.82 11.3858 -0.107799 2.28711
370 124 3 0.41 10.9234 6.31424 -6.84732
371 124 3 0.41 11.5895 6.18874 -5.28643
372 124 5 -0.82 11.7614 6.13077 -6.30235
373 125 3 0.41 -0.361822 -1.05945 -8.29328
374 125 3 0.41 1.02469 -1.01286 -9.11155
375 125 5 -0.82 0.6571 -1.12566 -8.16075
376 126 3 0.41 0.0151143 0.84583 -15.5633
377 126 3 0.41 0.500729 2.47032 -15.7385
378 126 5 -0.82 0.204701 1.62188 -16.2341
379 127 3 0.41 5.08262 9.3089 17.4828
380 127 3 0.41 3.53983 9.49967 16.9083
381 127 5 -0.82 4.48196 9.25067 16.6615
382 128 3 0.41 9.95475 3.12653 5.72881
383 128 3 0.41 9.36692 3.32587 7.19798
384 128 5 -0.82 9.23724 3.68994 6.24368
385 129 3 0.41 2.99475 7.38522 1.58651
386 129 3 0.41 3.34058 6.52213 0.240228
387 129 5 -0.82 3.47291 7.42139 0.670346
388 130 3 0.41 1.11019 3.97475 -8.05292
389 130 3 0.41 0.483929 2.86764 -9.11084
390 130 5 -0.82 0.755374 3.04254 -8.1605
391 131 3 0.41 0.621506 0.335375 -13.6811
392 131 3 0.41 -0.933106 0.601304 -13.1828
393 131 5 -0.82 -0.33406 0.165087 -13.8875
394 132 3 0.41 11.7768 10.5985 -3.25136
395 132 3 0.41 10.7725 11.7723 -3.15948
396 132 5 -0.82 11.5281 11.4465 -3.77309
397 133 3 0.41 5.67701 2.6802 3.68897
398 133 3 0.41 7.21708 2.3315 3.78195
399 133 5 -0.82 6.29704 2.14007 4.22095
400 134 3 0.41 -1.43364 3.55814 -1.11313
401 134 3 0.41 -0.390186 4.29385 -1.94151
402 134 5 -0.82 -0.596772 3.35528 -1.63085
403 135 3 0.41 8.37223 2.48394 -22.0569
404 135 3 0.41 9.32728 3.6969 -21.9637
405 135 5 -0.82 9.30794 2.73917 -22.1867
406 136 3 0.41 2.80569 1.01681 12.1421
407 136 3 0.41 2.95008 0.789168 13.7771
408 136 5 -0.82 3.2764 1.35974 12.9945
409 137 3 0.41 5.55276 11.0452 2.81995
410 137 3 0.41 6.95131 10.4795 2.4317
411 137 5 -0.82 6.53872 10.9556 3.20256
412 138 3 0.41 12.1454 9.51836 16.8348
413 138 3 0.41 -0.456179 9.10701 17.312
414 138 5 -0.82 -0.90763 9.90662 16.9004
415 139 3 0.41 11.0767 10.145 21.6259
416 139 3 0.41 9.57718 10.0214 21.6067
417 139 5 -0.82 10.2788 10.7566 21.5307
418 140 3 0.41 2.72986 0.0337676 0.76616
419 140 3 0.41 2.59876 -1.2728 -0.149707
420 140 5 -0.82 3.18195 -0.843573 0.535429
421 141 3 0.41 5.72384 12.2461 -19.0188
422 141 3 0.41 5.67245 10.8605 -19.7029
423 141 5 -0.82 6.24702 11.7204 -19.6827
424 142 3 0.41 -0.73687 8.00317 -7.41156
425 142 3 0.41 12.0233 8.46744 -6.31766
426 142 5 -0.82 -1.04512 8.61279 -6.59148
427 143 3 0.41 4.29278 9.30849 11.8119
428 143 3 0.41 2.68005 9.75044 11.9755
429 143 5 -0.82 3.52605 9.7949 11.3271
430 144 3 0.41 2.65619 -0.33316 -13.4764
431 144 3 0.41 2.98991 1.29604 -13.4501
432 144 5 -0.82 2.50328 0.570587 -13.9288
433 145 3 0.41 -0.706568 2.44913 -7.51494
434 145 3 0.41 11.7362 2.38386 -7.14613
435 145 5 -0.82 12.4464 2.00901 -7.82313
436 146 3 0.41 7.29968 2.21909 -10.7905
437 146 3 0.41 8.25428 1.92741 -9.30972
438 146 5 -0.82 7.80295 1.56793 -10.1753
439 147 3 0.41 9.9796 3.29634 -7.56173
440 147 3 0.41 9.8812 3.54843 -9.09234
441 147 5 -0.82 9.33701 3.20252 -8.35289
442 148 3 0.41 2.59922 1.22242 18.8251
443 148 3 0.41 3.71154 0.922512 19.9733
444 148 5 -0.82 2.70661 0.910255 19.8047
445 149 3 0.41 0.0609715 5.50355 -4.02181
446 149 3 0.41 -0.853421 5.84245 -5.43446
447 149 5 -0.82 0.035008 5.46486 -5.02293
448 150 3 0.41 11.6662 10.9199 -10.6382
449 150 3 0.41 -0.853331 10.6614 -10.5368
450 150 5 -0.82 12.4575 10.666 -11.2771
451 151 3 0.41 2.61383 5.87336 10.9628
452 151 3 0.41 3.94531 6.58539 11.7014
453 151 5 -0.82 2.92199 6.45601 11.6898
454 152 3 0.41 2.53017 11.2422 4.45461
455 152 3 0.41 1.79312 9.9184 4.12223
456 152 5 -0.82 2.61487 10.2531 4.64056
457 153 3 0.41 9.33139 7.88805 8.16302
458 153 3 0.41 10.8 8.50295 8.24922
459 153 5 -0.82 9.79193 8.78986 8.26473
460 154 3 0.41 8.96358 3.92058 -19.6708
461 154 3 0.41 7.57984 3.47757 -18.7764
462 154 5 -0.82 7.97895 3.74863 -19.7134
463 155 3 0.41 6.205 3.26954 17.7083
464 155 3 0.41 5.27163 3.58272 19.0128
465 155 5 -0.82 5.55158 2.84352 18.4187
466 156 3 0.41 0.227055 6.84608 -19.4439
467 156 3 0.41 -0.497508 7.2484 -18.0899
468 156 5 -0.82 0.423557 7.03538 -18.4386
469 157 3 0.41 -0.456388 0.70241 16.3141
470 157 3 0.41 12.0137 0.648964 16.4049
471 157 5 -0.82 -1.20798 0.95571 17.0004
472 158 3 0.41 1.24299 0.123808 -10.7815
473 158 3 0.41 2.17755 -1.00445 -11.1979
474 158 5 -0.82 1.24849 -0.887276 -10.8283
475 159 3 0.41 0.71385 10.0866 -13.054
476 159 3 0.41 -0.283656 9.27736 -12.0248
477 159 5 -0.82 0.601759 9.2432 -12.5128
478 160 3 0.41 12.457 2.54207 19.672
479 160 3 0.41 10.8412 2.93904 19.9254
480 160 5 -0.82 11.4813 2.35714 19.4048
481 161 3 0.41 10.2941 0.0100345 -18.9899
482 161 3 0.41 10.5205 -1.21905 -18.091
483 161 5 -0.82 9.78731 -0.6416 -18.3833
484 162 3 0.41 11.6559 10.6075 -6.752
485 162 3 0.41 11.2615 11.4773 -5.48394
486 162 5 -0.82 11.0415 11.3591 -6.49257
487 163 3 0.41 3.42931 11.2816 -12.093
488 163 3 0.41 4.27683 12.1402 -13.1137
489 163 5 -0.82 3.28312 11.9451 -12.8506
490 164 3 0.41 5.7627 11.5852 -3.82063
491 164 3 0.41 6.68706 -1.15347 -3.7396
492 164 5 -0.82 6.18285 12.2712 -4.41688
493 165 3 0.41 2.48553 -1.10765 20.0784
494 165 3 0.41 3.05697 11.465 20.7612
495 165 5 -0.82 2.91181 11.9711 19.9088
496 166 3 0.41 11.0081 1.47814 5.47007
497 166 3 0.41 11.5874 2.24644 4.13777
498 166 5 -0.82 10.7361 1.96781 4.61397
499 167 3 0.41 2.05943 8.46407 -12.0535
500 167 3 0.41 3.00848 7.64203 -10.8622
501 167 5 -0.82 2.87432 7.79242 -11.863
502 168 3 0.41 2.03304 0.912089 -5.89566
503 168 3 0.41 1.55361 0.118957 -7.20108
504 168 5 -0.82 2.40178 0.406302 -6.71428
505 169 3 0.41 11.4067 10.8665 3.24572
506 169 3 0.41 11.1881 10.7486 4.89875
507 169 5 -0.82 11.8788 10.7407 4.1324
508 170 3 0.41 10.8578 1.81587 7.90915
509 170 3 0.41 10.336 2.86723 9.06324
510 170 5 -0.82 10.0387 2.22007 8.32988
511 171 3 0.41 6.31206 11.0233 7.95023
512 171 3 0.41 7.73146 10.7173 7.08673
513 171 5 -0.82 7.32311 11.1099 7.90348
514 172 3 0.41 10.7943 -0.171687 19.9927
515 172 3 0.41 11.2695 0.609329 18.7087
516 172 5 -0.82 10.9833 -0.320173 19.0097
517 173 3 0.41 5.15496 0.835147 5.83833
518 173 3 0.41 5.12181 -0.308296 4.72012
519 173 5 -0.82 4.94498 -0.168041 5.72834
520 174 3 0.41 10.641 11.7799 18.6485
521 174 3 0.41 10.0533 10.2699 18.4441
522 174 5 -0.82 10.8134 10.9234 18.2
523 175 3 0.41 12.147 5.12858 11.0799
524 175 3 0.41 -0.94713 3.90443 10.6978
525 175 5 -0.82 -0.906271 4.77471 11.2664
526 176 3 0.41 10.7243 3.5163 -2.6314
527 176 3 0.41 11.4313 4.69622 -3.51024
528 176 5 -0.82 11.0116 3.76473 -3.6093
529 177 3 0.41 9.78246 0.278115 15.5724
530 177 3 0.41 8.59786 -0.174488 16.5276
531 177 5 -0.82 8.84813 -0.0525264 15.5157
532 178 3 0.41 0.300304 12.3359 -13.9755
533 178 3 0.41 1.72003 11.7229 -13.4518
534 178 5 -0.82 0.782846 11.5013 -13.7692
535 179 3 0.41 2.02123 -1.44245 -22.2803
536 179 3 0.41 3.50925 -0.709911 -22.408
537 179 5 -0.82 3.04333 12.3811 -22.3805
538 180 3 0.41 0.699197 8.87316 -1.39783
539 180 3 0.41 -0.231412 9.14984 -2.65625
540 180 5 -0.82 0.209232 9.64272 -1.88819
541 181 3 0.41 8.04933 2.42043 -7.37729
542 181 3 0.41 8.18588 1.88374 -5.88776
543 181 5 -0.82 7.49319 1.98815 -6.64272
544 182 3 0.41 9.72176 5.72058 -10.6701
545 182 3 0.41 10.977 4.92564 -9.88378
546 182 5 -0.82 10.1296 4.80568 -10.5487
547 183 3 0.41 2.91647 5.57599 -16.3006
548 183 3 0.41 1.94173 6.02761 -17.6066
549 183 5 -0.82 1.98979 5.48584 -16.7285
550 184 3 0.41 0.214602 9.80878 13.0406
551 184 3 0.41 1.1856 8.55844 12.7047
552 184 5 -0.82 1.07151 9.54747 12.5129
553 185 3 0.41 1.63804 7.01403 -14.3412
554 185 3 0.41 1.62001 7.08481 -15.9153
555 185 5 -0.82 1.84857 7.64986 -15.1016
556 186 3 0.41 1.61304 6.70675 -7.8715
557 186 3 0.41 0.842142 5.73029 -6.80911
558 186 5 -0.82 0.842793 5.98366 -7.83406
559 187 3 0.41 8.30236 3.19736 -3.2114
560 187 3 0.41 7.5415 2.02307 -3.94994
561 187 5 -0.82 8.3677 2.58124 -4.04618
562 188 3 0.41 3.95758 0.761875 -21.2598
563 188 3 0.41 5.08691 1.4928 -22.2203
564 188 5 -0.82 4.3803 0.766949 -22.1889
565 189 3 0.41 3.81908 11.6962 13.6148
566 189 3 0.41 3.60474 -0.895083 12.7121
567 189 5 -0.82 3.29166 -1.42827 13.505
568 190 3 0.41 5.8937 -1.24082 15.279
569 190 3 0.41 5.94534 11.7796 14.0875
570 190 5 -0.82 6.10274 -1.23185 14.2986
571 191 3 0.41 12.2159 6.31091 15.1267
572 191 3 0.41 12.0861 7.83742 15.5703
573 191 5 -0.82 -1.28936 7.08189 15.5167
574 192 3 0.41 7.78986 2.87025 20.9495
575 192 3 0.41 8.74913 1.60409 20.6791
576 192 5 -0.82 8.32206 2.43463 20.2135
577 193 3 0.41 4.12859 0.929469 21.9027
578 193 3 0.41 3.81828 2.35996 21.9412
579 193 5 -0.82 4.59761 1.75746 22.1218
580 194 3 0.41 0.581895 -0.716975 14.8492
581 194 3 0.41 1.46488 12.1627 14.1073
582 194 5 -0.82 0.516814 -1.41672 14.128
583 195 3 0.41 -0.241619 6.33514 13.2311
584 195 3 0.41 -0.202931 7.4476 14.2672
585 195 5 -0.82 0.213356 7.1972 13.372
586 196 3 0.41 10.572 -1.04585 -22.2346
587 196 3 0.41 11.8981 -0.253718 -22.1135
588 196 5 -0.82 11.5743 -1.22446 -22.0682
589 197 3 0.41 5.49504 8.14416 5.77211
590 197 3 0.41 5.247 8.49751 7.12398
591 197 5 -0.82 4.65415 8.30805 6.32805
592 198 3 0.41 11.9844 2.19251 -9.29451
593 198 3 0.41 -1.04925 2.33917 -10.5593
594 198 5 -0.82 11.975 2.29191 -10.342
595 199 3 0.41 5.25499 2.90926 -3.62276
596 199 3 0.41 5.44783 4.45212 -4.13696
597 199 5 -0.82 5.47646 3.43371 -4.4549
598 200 3 0.41 1.69957 6.97488 5.81456
599 200 3 0.41 3.20151 7.55502 5.81983
600 200 5 -0.82 2.60089 6.85546 5.33061
601 201 3 0.41 6.2859 11.5819 17.5632
602 201 3 0.41 7.26941 10.5061 16.8294
603 201 5 -0.82 7.08426 11.5312 16.9237
604 202 3 0.41 6.67511 5.64072 -22.1729
605 202 3 0.41 7.4025 4.59364 -21.1989
606 202 5 -0.82 6.69723 4.67192 -21.9065
607 203 3 0.41 1.62584 5.51476 16.7757
608 203 3 0.41 1.5891 4.81959 18.2465
609 203 5 -0.82 1.99787 4.7267 17.3234
610 204 3 0.41 6.5528 10.2446 -11.701
611 204 3 0.41 7.83238 11.1623 -10.9963
612 204 5 -0.82 7.52214 10.2516 -11.316
613 205 3 0.41 11.6586 -1.44556 -13.2292
614 205 3 0.41 11.7328 11.0756 -12.6582
615 205 5 -0.82 11.5096 11.5913 -13.5533
616 206 3 0.41 5.37988 5.37124 2.62811
617 206 3 0.41 4.09202 4.34429 2.32401
618 206 5 -0.82 5.10523 4.42211 2.4094
619 207 3 0.41 -0.8068 10.0964 6.62237
620 207 3 0.41 0.0815457 8.73774 6.52017
621 207 5 -0.82 0.0471929 9.72178 6.26374
622 208 3 0.41 12.0406 4.25289 1.70049
623 208 3 0.41 -1.03902 3.62278 2.80443
624 208 5 -0.82 12.1596 3.39086 2.27173
625 209 3 0.41 11.4455 0.930289 -20.9289
626 209 3 0.41 10.0747 1.87938 -20.8075
627 209 5 -0.82 10.7319 1.25957 -20.2587
628 210 3 0.41 8.4679 11.6581 10.7874
629 210 3 0.41 10.1119 11.2288 10.6037
630 210 5 -0.82 9.13151 10.906 10.6882
631 211 3 0.41 7.21075 4.35488 13.4477
632 211 3 0.41 7.55359 5.99146 13.4198
633 211 5 -0.82 7.7667 5.10052 13.8616
634 212 3 0.41 4.31763 12.4728 23.2133
635 212 3 0.41 5.13211 12.2997 21.793
636 212 5 -0.82 4.35146 -1.29639 22.2606
637 213 3 0.41 -0.127568 0.0117561 0.82853
638 213 3 0.41 0.486997 -0.576505 2.24849
639 213 5 -0.82 0.170102 -0.849471 1.30369
640 214 3 0.41 -0.614386 3.50459 -5.21948
641 214 3 0.41 12.3587 2.73938 -4.13026
642 214 5 -0.82 -0.801043 2.67031 -4.71501
643 215 3 0.41 6.47667 9.17108 -18.8139
644 215 3 0.41 7.88491 9.74567 -18.5751
645 215 5 -0.82 7.36767 8.90059 -18.4363
646 216 3 0.41 3.57091 1.50338 7.38847
647 216 3 0.41 2.25019 0.659395 7.79394
648 216 5 -0.82 2.89954 1.36751 8.11888
649 217 3 0.41 7.45442 -1.20443 -16.8492
650 217 3 0.41 8.14189 11.7088 -15.8724
651 217 5 -0.82 7.4119 11.7971 -16.5883
652 218 3 0.41 7.54738 0.798066 5.0665
653 218 3 0.41 7.88079 0.852295 6.63253
654 218 5 -0.82 8.30486 0.706621 5.72587
655 219 3 0.41 7.15666 8.42955 -14.4815
656 219 3 0.41 6.48295 6.98352 -13.9599
657 219 5 -0.82 7.08811 7.40208 -14.61
658 220 3 0.41 10.0401 9.49041 15.9412
659 220 3 0.41 9.87332 7.80025 16.18
660 220 5 -0.82 10.4621 8.60575 16.2657
661 221 3 0.41 2.67982 8.57404 -21.4888
662 221 3 0.41 1.88409 7.14698 -21.6426
663 221 5 -0.82 2.79916 7.56416 -21.605
664 222 3 0.41 6.59908 0.778117 -19.3173
665 222 3 0.41 8.12926 0.339769 -19.231
666 222 5 -0.82 7.44284 0.661853 -19.854
667 223 3 0.41 3.00989 7.74872 -8.5964
668 223 3 0.41 4.47125 7.12937 -9.08926
669 223 5 -0.82 3.47582 7.14685 -9.29098
670 224 3 0.41 6.7849 7.08434 3.32272
671 224 3 0.41 5.39169 7.57433 2.60102
672 224 5 -0.82 6.18482 6.92798 2.50712
673 225 3 0.41 4.29039 2.46404 0.562305
674 225 3 0.41 5.56599 2.72621 1.51318
675 225 5 -0.82 5.29031 2.16975 0.732527
676 226 3 0.41 10.9619 8.43712 18.5171
677 226 3 0.41 11.2565 6.85577 18.4149
678 226 5 -0.82 11.4729 7.66415 18.9302
679 227 3 0.41 8.35232 9.85371 19.4964
680 227 3 0.41 8.99912 8.50206 19.9569
681 227 5 -0.82 8.98956 9.10885 19.1557
682 228 3 0.41 6.61755 -0.387849 -11.014
683 228 3 0.41 5.19043 0.300192 -11.367
684 228 5 -0.82 6.08341 -0.0182571 -11.7804
685 229 3 0.41 6.99129 7.64898 -21.2374
686 229 3 0.41 5.85665 8.14753 -22.2607
687 229 5 -0.82 6.43314 7.32077 -21.9931
688 230 3 0.41 4.31345 3.0909 6.31091
689 230 3 0.41 5.66502 2.63462 5.69064
690 230 5 -0.82 5.11556 2.52172 6.51941
691 231 3 0.41 2.26912 9.77434 -16.808
692 231 3 0.41 1.44479 9.37035 -15.5394
693 231 5 -0.82 1.75888 10.1527 -16.0297
694 232 3 0.41 7.63704 4.26407 -5.11216
695 232 3 0.41 8.14137 5.83494 -4.88352
696 232 5 -0.82 8.04619 5.06062 -5.53779
697 233 3 0.41 -0.542717 1.91055 -0.394522
698 233 3 0.41 -1.19386 2.36325 0.984834
699 233 5 -0.82 -0.646469 1.62623 0.570431
700 234 3 0.41 3.83391 4.73503 8.54951
701 234 3 0.41 4.0632 6.1253 9.35743
702 234 5 -0.82 4.16145 5.09263 9.44169
703 235 3 0.41 3.81326 2.13174 9.92132
704 235 3 0.41 4.78763 1.51975 10.9942
705 235 5 -0.82 4.72526 2.21593 10.278
706 236 3 0.41 12.2934 9.94088 0.163002
707 236 3 0.41 11.7049 8.7902 1.17585
708 236 5 -0.82 12.2164 8.96038 0.342834
709 237 3 0.41 1.53161 4.89103 8.62247
710 237 3 0.41 0.393758 4.84386 9.84802
711 237 5 -0.82 0.976104 5.4502 9.30417
712 238 3 0.41 0.621813 -0.576331 11.18
713 238 3 0.41 0.0189844 -1.44335 12.3479
714 238 5 -0.82 -0.149908 -1.18298 11.3892
715 239 3 0.41 1.59319 10.796 -3.53835
716 239 3 0.41 2.92169 11.2988 -4.36801
717 239 5 -0.82 2.62942 10.7145 -3.52116
718 240 3 0.41 2.05992 7.97188 -18.4028
719 240 3 0.41 3.50037 8.24714 -17.7406
720 240 5 -0.82 2.60226 8.68581 -18.0303
721 241 3 0.41 8.33848 7.90731 -0.914328
722 241 3 0.41 7.1987 6.80677 -0.544964
723 241 5 -0.82 8.20497 6.97169 -0.616104
724 242 3 0.41 1.23328 5.0671 -2.08945
725 242 3 0.41 0.792984 6.62291 -1.70604
726 242 5 -0.82 0.661473 5.83083 -2.39744
727 243 3 0.41 4.79602 0.526927 -18.3189
728 243 3 0.41 5.43006 -0.326099 -17.0423
729 243 5 -0.82 5.61471 -0.00386534 -17.9571
730 244 3 0.41 -0.818122 4.74545 21.6428
731 244 3 0.41 -0.00648355 4.72617 23.0655
732 244 5 -0.82 0.134646 4.76553 22.0759
733 245 3 0.41 6.97516 1.61265 -21.1083
734 245 3 0.41 6.37154 3.05392 -21.7345
735 245 5 -0.82 6.67925 2.08606 -21.9901
736 246 3 0.41 6.75162 6.30173 10.9162
737 246 3 0.41 7.9421 5.37707 10.4073
738 246 5 -0.82 6.9093 5.53155 10.3191
739 247 3 0.41 3.56202 7.73273 20.5115
740 247 3 0.41 3.51574 8.69037 21.8253
741 247 5 -0.82 3.48357 7.71963 21.5245
742 248 3 0.41 11.2394 8.18835 12.0778
743 248 3 0.41 -1.29938 8.2221 11.3202
744 248 5 -0.82 11.8883 8.79544 11.6089
745 249 3 0.41 1.42663 0.791425 -16.9407
746 249 3 0.41 2.65597 -0.224618 -16.7252
747 249 5 -0.82 2.36483 0.562813 -17.3049
748 250 3 0.41 6.47562 3.18758 23.1343
749 250 3 0.41 6.0087 2.39867 21.8325
750 250 5 -0.82 6.75086 3.08622 22.1053
751 251 3 0.41 12.4653 1.81623 22.3037
752 251 3 0.41 -0.674539 0.50184 22.2434