ITEM: TIMESTEP
35000
ITEM: NUMBER OF ATOMS
1360
ITEM: BOX BOUNDS pp pp pp
-1.5000000000000000e+00 1.2500000000000000e+01
-1.5000000000000000e+00 1.2500000000000000e+01
-2.7500000000000000e+01 2.7500000000000000e+01
ITEM: ATOMS id mol type q x y z
1 1 3 0.41 -0.973971 2.21132 6.70445
2 1 3 0.41 -1.05464 1.04721 7.78673
3 1 5 -0.82 -0.489384 1.80672 7.49585
4 2 3 0.41 4.34642 10.6057 -6.71362
5 2 3 0.41 3.38402 10.355 -5.40255
6 2 5 -0.82 3.4291 10.351 -6.41062
7 3 3 0.41 9.30439 0.764054 11.745
8 3 3 0.41 8.70379 0.25791 13.1636
9 3 5 -0.82 8.93291 -0.0339134 12.1962
10 4 3 0.41 6.24507 -0.880506 -17.4727
11 4 3 0.41 6.40897 -0.0657772 -16.0326
12 4 5 -0.82 5.82929 -0.768547 -16.5295
13 5 3 0.41 2.96415 8.6429 -10.1361
14 5 3 0.41 3.42283 8.90454 -11.6731
15 5 5 -0.82 2.65427 8.55996 -11.1108
16 6 3 0.41 2.09826 4.02597 -19.031
17 6 3 0.41 3.52335 3.49138 -18.5085
18 6 5 -0.82 3.05719 3.84004 -19.3439
19 7 3 0.41 3.72558 6.41724 -22.0654
20 7 3 0.41 3.07605 7.8627 -21.9895
21 7 5 -0.82 3.97811 7.41328 -22.0466
22 8 3 0.41 6.53026 5.20391 17.5125
23 8 3 0.41 7.45958 5.03255 18.6902
24 8 5 -0.82 6.56453 5.407 18.5216
25 9 3 0.41 10.817 0.0742934 -13.9376
26 9 3 0.41 10.5363 -0.782799 -12.6019
27 9 5 -0.82 10.1031 -0.502469 -13.4997
28 10 3 0.41 1.14276 11.0622 -0.940612
29 10 3 0.41 0.566186 11.7392 -2.23882
30 10 5 -0.82 1.41673 11.3316 -1.88428
31 11 3 0.41 10.7727 11.3265 -5.63931
32 11 3 0.41 10.6015 -1.07699 -5.58599
33 11 5 -0.82 10.5597 12.1667 -6.23484
34 12 3 0.41 11.599 10.0015 -17.6563
35 12 3 0.41 12.1407 9.52391 -16.2587
36 12 5 -0.82 11.3914 9.30868 -16.9139
37 13 3 0.41 8.69851 6.82657 14.3552
38 13 3 0.41 10.1222 6.81953 15.1009
39 13 5 -0.82 9.64078 7.24505 14.3143
40 14 3 0.41 11.3271 -1.30058 -10.2084
41 14 3 0.41 11.7852 -0.00243183 -10.9036
42 14 5 -0.82 11.146 -0.758803 -11.0254
43 15 3 0.41 0.520027 0.347239 12.5604
44 15 3 0.41 -0.778518 1.11756 12.0676
45 15 5 -0.82 -0.0565982 1.19041 12.7814
46 16 3 0.41 6.06903 1.62826 19.8402
47 16 3 0.41 6.1927 3.25498 19.604
48 16 5 -0.82 6.24232 2.35351 19.141
49 17 3 0.41 3.15334 10.0828 19.8165
50 17 3 0.41 3.40231 11.3024 20.8188
51 17 5 -0.82 3.89225 10.5965 20.2621
52 18 3 0.41 1.91221 10.6276 -12.4426
53 18 3 0.41 1.43764 9.38241 -13.2244
54 18 5 -0.82 1.27976 10.3764 -13.1896
55 19 3 0.41 1.384 7.45725 4.84776
56 19 3 0.41 0.590413 8.24503 5.85455
57 19 5 -0.82 1.54263 8.06978 5.60683
58 20 3 0.41 6.21968 5.71197 -7.59514
59 20 3 0.41 6.78041 4.47345 -6.67973
60 20 5 -0.82 6.58921 4.74532 -7.64578
61 21 3 0.41 10.1654 5.90061 23.1742
62 21 3 0.41 10.5679 4.77429 22.1005
63 21 5 -0.82 10.1779 5.75015 22.1957
64 22 3 0.41 7.32086 4.94125 -14.7427
65 22 3 0.41 7.65822 6.43206 -15.0105
66 22 5 -0.82 7.24337 5.63954 -15.4236
67 23 3 0.41 10.4339 4.13906 -20.3126
68 23 3 0.41 11.5978 4.73117 -19.5374
69 23 5 -0.82 10.9589 3.91238 -19.4622
70 24 3 0.41 2.00041 7.09471 -13.367
71 24 3 0.41 2.76325 7.67069 -14.6833
72 24 5 -0.82 1.93727 7.79839 -14.0814
73 25 3 0.41 3.28519 1.46673 -17.3729
74 25 3 0.41 3.98945 2.30206 -16.156
75 25 5 -0.82 3.36975 2.37547 -16.9551
76 26 3 0.41 1.90131 -1.30353 -11.6253
77 26 3 0.41 0.518052 -1.25158 -12.2715
78 26 5 -0.82 0.943925 -1.01402 -11.3792
79 27 3 0.41 1.68308 -0.0810116 -16.1929
80 27 3 0.41 0.709646 1.13788 -15.8645
81 27 5 -0.82 0.844229 0.167221 -15.6702
82 28 3 0.41 10.4354 9.77207 -12.6482
83 28 3 0.41 10.0564 10.5717 -11.355
84 28 5 -0.82 10.8535 10.3008 -11.8877
85 29 3 0.41 -1.07849 4.06713 18.5473
86 29 3 0.41 -1.47793 3.29251 20.0323
87 29 5 -0.82 -1.20042 4.14427 19.5785
88 30 3 0.41 6.4595 3.3693 9.61013
89 30 3 0.41 5.03692 3.84828 8.81589
90 30 5 -0.82 5.4032 3.19986 9.54877
91 31 3 0.41 -0.329329 11.7608 -16.5696
92 31 3 0.41 1.37241 11.7059 -16.5092
93 31 5 -0.82 0.517075 11.2478 -16.7802
94 32 3 0.41 2.35959 4.1841 -21.8832
95 32 3 0.41 1.46061 5.43255 -22.1374
96 32 5 -0.82 2.41848 5.1665 -22.1536
97 33 3 0.41 5.31132 -0.837598 -4.51685
98 33 3 0.41 4.98921 0.537393 -4.02708
99 33 5 -0.82 4.865 -0.034855 -4.84806
100 34 3 0.41 8.20778 11.3781 1.85733
101 34 3 0.41 8.9704 10.1643 2.67968
102 34 5 -0.82 8.10546 10.5245 2.36683
103 35 3 0.41 7.07784 8.04726 11.1228
104 35 3 0.41 7.81615 9.36305 11.7725
105 35 5 -0.82 7.1825 9.09507 10.9937
106 36 3 0.41 6.66908 6.36427 -0.641408
107 36 3 0.41 5.1413 6.51998 -0.833431
108 36 5 -0.82 5.93984 5.94033 -1.13476
109 37 3 0.41 1.18004 -0.540866 21.4044
110 37 3 0.41 -0.0629346 -0.560824 22.3818
111 37 5 -0.82 0.450468 0.0976672 21.7947
112 38 3 0.41 1.85536 3.44641 2.66012
113 38 3 0.41 2.54743 3.93285 1.18045
114 38 5 -0.82 2.74682 3.67968 2.17832
115 39 3 0.41 9.00699 8.89196 -14.003
116 39 3 0.41 10.349 8.70326 -14.9527
117 39 5 -0.82 10.0248 8.88262 -13.9952
118 40 3 0.41 12.2231 11.7028 -19.2261
119 40 3 0.41 -1.10778 10.3101 -19.3186
120 40 5 -0.82 11.9917 10.7213 -19.0184
121 41 3 0.41 5.68457 8.27953 -15.1372
122 41 3 0.41 4.70758 7.54148 -16.1497
123 41 5 -0.82 4.74908 7.92063 -15.2135
124 42 3 0.41 -0.422421 11.8327 4.04125
125 42 3 0.41 12.0502 11.6123 3.7198
126 42 5 -0.82 -1.0806 11.1465 3.73065
127 43 3 0.41 10.5017 6.248 16.7242
128 43 3 0.41 11.6769 7.08689 16.083
129 43 5 -0.82 11.3358 6.0756 16.1943
130 44 3 0.41 7.42148 8.92475 -16.7543
131 44 3 0.41 7.07951 10.1228 -15.7862
132 44 5 -0.82 6.64063 9.54204 -16.4914
133 45 3 0.41 5.72711 7.79184 1.2261
134 45 3 0.41 4.95984 8.95233 0.36962
135 45 5 -0.82 5.88794 8.55573 0.592119
136 46 3 0.41 8.15327 3.80005 13.9423
137 46 3 0.41 9.61094 3.41096 14.2629
138 46 5 -0.82 8.91837 4.15212 14.4738
139 47 3 0.41 4.67425 -0.0845636 2.54538
140 47 3 0.41 6.10117 0.0734585 1.69934
141 47 5 -0.82 5.13401 -0.214985 1.62512
142 48 3 0.41 2.0914 6.12401 19.0525
143 48 3 0.41 1.08498 5.02279 18.4562
144 48 5 -0.82 1.2272 5.67769 19.2252
145 49 3 0.41 5.67622 1.38304 -6.70204
146 49 3 0.41 7.29762 1.66677 -6.24123
147 49 5 -0.82 6.51683 1.93123 -6.81665
148 50 3 0.41 -0.621118 0.686682 20.6685
149 50 3 0.41 11.7345 1.00237 20.492
150 50 5 -0.82 -1.35515 1.31752 20.266
151 51 3 0.41 -1.32737 9.98827 11.1342
152 51 3 0.41 11.2634 9.34185 11.4541
153 51 5 -0.82 11.6991 9.91669 10.7779
154 52 3 0.41 0.00145912 6.85901 -12.7192
155 52 3 0.41 -0.770732 5.48603 -13.0121
156 52 5 -0.82 -0.618049 6.43863 -13.4192
157 53 3 0.41 10.6057 7.17316 6.48914
158 53 3 0.41 9.10126 7.59493 7.00563
159 53 5 -0.82 9.6056 7.20454 6.21003
160 54 3 0.41 4.56593 2.74488 14.571
161 54 3 0.41 5.58351 2.17709 15.6181
162 54 5 -0.82 5.36364 2.17155 14.6179
163 55 3 0.41 9.0253 10.5634 13.3975
164 55 3 0.41 9.5283 8.93668 13.2629
165 55 5 -0.82 9.11287 9.74596 12.7927
166 56 3 0.41 -1.38751 7.59783 6.05555
167 56 3 0.41 12.0881 6.04065 5.69491
168 56 5 -0.82 12.2691 6.717 6.45926
169 57 3 0.41 8.45885 3.12079 -16.3715
170 57 3 0.41 7.14664 3.09289 -17.0758
171 57 5 -0.82 7.54366 2.76652 -16.2136
172 58 3 0.41 4.55047 10.1808 -21.1366
173 58 3 0.41 4.45806 9.28256 -22.4563
174 58 5 -0.82 4.91916 10.0684 -22.0878
175 59 3 0.41 10.7703 11.3315 10.1678
176 59 3 0.41 9.45002 11.9109 10.8917
177 59 5 -0.82 10.0074 11.9961 10.0731
178 60 3 0.41 8.4335 7.36348 0.332581
179 60 3 0.41 7.66949 8.72008 0.362407
180 60 5 -0.82 8.37697 8.22179 -0.202634
181 61 3 0.41 -1.27368 5.04571 16.8057
182 61 3 0.41 -0.532037 3.86451 16.258
183 61 5 -0.82 -0.415793 4.59227 16.9743
184 62 3 0.41 12.2206 9.69776 5.46397
185 62 3 0.41 -0.305818 9.99478 5.90436
186 62 5 -0.82 -0.969022 9.19571 5.79206
187 63 3 0.41 12.4497 9.09309 15.2972
188 63 3 0.41 -1.27883 8.84376 16.81
189 63 5 -0.82 12.0657 8.56341 16.0874
190 64 3 0.41 6.59801 10.5662 6.31524
191 64 3 0.41 6.15659 11.927 7.18687
192 64 5 -0.82 6.35092 11.5514 6.26433
193 65 3 0.41 0.268465 2.35856 -3.93444
194 65 3 0.41 0.9378 1.00093 -3.57693
195 65 5 -0.82 -0.00468804 1.39993 -3.75659
196 66 3 0.41 11.6593 1.0825 3.5024
197 66 3 0.41 10.1328 1.04189 3.70538
198 66 5 -0.82 10.8269 1.7161 3.41957
199 67 3 0.41 4.10243 3.04915 10.5985
200 67 3 0.41 3.49525 3.96018 11.7953
201 67 5 -0.82 3.41961 3.02969 11.3665
202 68 3 0.41 4.42073 11.7397 18.3648
203 68 3 0.41 2.9992 12.201 17.7563
204 68 5 -0.82 3.94794 11.8901 17.5075
205 69 3 0.41 2.05306 1.985 -21.4084
206 69 3 0.41 0.700771 1.61001 -22.0731
207 69 5 -0.82 1.36839 2.33668 -22.0611
208 70 3 0.41 9.88777 6.15853 -18.5247
209 70 3 0.41 10.49 7.43628 -19.2245
210 70 5 -0.82 10.7752 6.59638 -18.7051
211 71 3 0.41 -1.18535 8.13234 3.58532
212 71 3 0.41 -0.0748817 8.90015 2.55482
213 71 5 -0.82 -0.757387 8.09254 2.67967
214 72 3 0.41 11.2287 11.5774 15.7928
215 72 3 0.41 10.4671 10.8816 16.9414
216 72 5 -0.82 11.1296 11.6546 16.785
217 73 3 0.41 11.7077 4.7152 -8.74903
218 73 3 0.41 12.0062 3.47788 -7.80493
219 73 5 -0.82 12.0487 3.73173 -8.78273
220 74 3 0.41 4.3433 0.755806 0.0397646
221 74 3 0.41 4.50947 2.2582 -0.31711
222 74 5 -0.82 4.38038 1.35875 -0.778061
223 75 3 0.41 9.99973 0.277624 -7.16443
224 75 3 0.41 10.3048 -0.125901 -8.72128
225 75 5 -0.82 10.4484 0.590655 -8.02634
226 76 3 0.41 3.01704 3.56294 -10.0531
227 76 3 0.41 4.22486 3.32629 -11.0343
228 76 5 -0.82 3.25672 3.62982 -11.0441
229 77 3 0.41 9.90808 3.64808 16.1307
230 77 3 0.41 9.96553 4.01905 17.6525
231 77 5 -0.82 10.394 3.44319 16.9776
232 78 3 0.41 0.257005 10.6323 -11.5804
233 78 3 0.41 -1.36509 10.3334 -11.5419
234 78 5 -0.82 -0.461675 10.1882 -11.0168
235 79 3 0.41 8.02325 7.59765 2.85833
236 79 3 0.41 7.17544 9.07359 2.89282
237 79 5 -0.82 7.18789 8.05804 3.14539
238 80 3 0.41 3.67701 5.25874 -14.2565
239 80 3 0.41 3.25486 3.69351 -14.4558
240 80 5 -0.82 3.225 4.59934 -14.9129
241 81 3 0.41 10.4191 12.3407 -3.56607
242 81 3 0.41 9.77242 -0.568887 -2.74313
243 81 5 -0.82 10.5778 -1.20725 -2.68174
244 82 3 0.41 1.13352 7.64289 -1.8266
245 82 3 0.41 1.9905 6.81772 -3.03077
246 82 5 -0.82 1.07933 7.15396 -2.72714
247 83 3 0.41 9.64209 10.7324 5.54714
248 83 3 0.41 10.3462 9.64652 6.46165
249 83 5 -0.82 10.3691 10.0363 5.53221
250 84 3 0.41 11.3743 0.884456 1.29998
251 84 3 0.41 10.3809 0.750201 0.0601213
252 84 5 -0.82 10.9731 0.193546 0.706375
253 85 3 0.41 6.3068 -0.251649 22.2377
254 85 3 0.41 6.86289 1.05156 23.0275
255 85 5 -0.82 6.4871 0.747598 22.1324
256 86 3 0.41 -0.075045 8.84692 -19.2817
257 86 3 0.41 0.588195 9.94301 -18.4346
258 86 5 -0.82 0.424532 9.72185 -19.4047
259 87 3 0.41 5.66109 0.497527 5.02355
260 87 3 0.41 4.1663 0.728453 4.37879
261 87 5 -0.82 4.96941 0.110038 4.36251
262 88 3 0.41 6.19722 0.286109 17.0413
263 88 3 0.41 5.3281 -1.01438 16.8197
264 88 5 -0.82 6.06487 -0.441187 16.3273
265 89 3 0.41 8.90562 3.41433 -22.1226
266 89 3 0.41 9.83292 4.7356 -22.0882
267 89 5 -0.82 9.78034 3.72645 -21.8184
268 90 3 0.41 11.2719 4.55744 -10.9328
269 90 3 0.41 10.1446 3.48834 -10.9568
270 90 5 -0.82 10.2774 4.46825 -11.1518
271 91 3 0.41 8.35548 0.819281 8.92852
272 91 3 0.41 9.28773 -0.451118 9.24398
273 91 5 -0.82 8.46846 -0.188764 8.70282
274 92 3 0.41 2.36147 5.68633 4.47081
275 92 3 0.41 3.1583 4.79818 3.4283
276 92 5 -0.82 3.28931 5.58723 4.07101
277 93 3 0.41 5.29424 9.38413 7.58732
278 93 3 0.41 5.10366 8.38386 8.75517
279 93 5 -0.82 5.37568 9.33863 8.58172
280 94 3 0.41 8.44616 6.17743 5.49503
281 94 3 0.41 7.18929 5.68843 6.40516
282 94 5 -0.82 7.58989 5.55869 5.48124
283 95 3 0.41 5.23673 5.26634 12.4566
284 95 3 0.41 3.92546 5.73259 13.3712
285 95 5 -0.82 4.23769 5.27353 12.5464
286 96 3 0.41 0.52097 2.02432 10.4258
287 96 3 0.41 1.80391 2.89398 10.7353
288 96 5 -0.82 0.78101 2.97879 10.6375
289 97 3 0.41 5.67342 8.42142 17.0056
290 97 3 0.41 6.02454 7.40224 15.8762
291 97 5 -0.82 5.51899 7.43826 16.7265
292 98 3 0.41 9.03521 -0.781088 -17.5649
293 98 3 0.41 8.54632 0.40984 -16.7911
294 98 5 -0.82 9.15269 0.206483 -17.617
295 99 3 0.41 10.3902 8.45091 2.61975
296 99 3 0.41 10.5854 9.59784 3.76863
297 99 5 -0.82 10.5639 9.46651 2.74772
298 100 3 0.41 4.27109 12.3326 1.06105
299 100 3 0.41 3.38098 11.1012 0.530229
300 100 5 -0.82 3.41156 11.8041 1.27849
301 101 3 0.41 6.61264 8.63545 -7.62439
302 101 3 0.41 8.06585 9.12369 -7.30081
303 101 5 -0.82 7.40619 9.12837 -8.04807
304 102 3 0.41 6.46299 -0.797804 -20.1694
305 102 3 0.41 5.86208 0.0167295 -18.9606
306 102 5 -0.82 6.39674 -0.868985 -19.1595
307 103 3 0.41 6.64428 7.66523 14.1331
308 103 3 0.41 7.18208 6.25669 13.4867
309 103 5 -0.82 6.98322 6.72069 14.3948
310 104 3 0.41 1.09053 7.64608 -10.9788
311 104 3 0.41 -0.265131 8.60992 -10.896
312 104 5 -0.82 0.0751361 7.61227 -10.8453
313 105 3 0.41 9.435 1.10249 7.10317
314 105 3 0.41 9.70091 1.95658 5.8064
315 105 5 -0.82 10.1586 1.31586 6.47805
316 106 3 0.41 1.60522 8.9749 -6.29631
317 106 3 0.41 1.94333 8.73247 -4.74448
318 106 5 -0.82 1.26069 8.57249 -5.45869
319 107 3 0.41 0.181525 9.84213 -9.48418
320 107 3 0.41 1.53551 9.37803 -8.80166
321 107 5 -0.82 0.628594 9.76219 -8.55582
322 108 3 0.41 2.4978 12.4634 -20.7838
323 108 3 0.41 2.99249 11.2228 -19.841
324 108 5 -0.82 2.80012 12.2279 -19.8706
325 109 3 0.41 9.03302 -1.03021 -19.8455
326 109 3 0.41 9.86744 11.8106 -19.2297
327 109 5 -0.82 9.93519 -1.44148 -19.8771
328 110 3 0.41 8.12251 2.2557 -3.93424
329 110 3 0.41 9.33793 2.07999 -4.98456
330 110 5 -0.82 8.50294 1.61361 -4.62851
331 111 3 0.41 1.84718 5.32585 -15.7252
332 111 3 0.41 1.5291 6.86366 -16.2279
333 111 5 -0.82 1.33907 5.90631 -16.4268
334 112 3 0.41 11.4187 3.34328 -21.6309
335 112 3 0.41 -0.917098 3.56978 -21.6992
336 112 5 -0.82 12.3018 2.94102 -21.9229
337 113 3 0.41 3.88197 0.969568 16.4037
338 113 3 0.41 3.19433 0.848824 15.0403
339 113 5 -0.82 3.07898 0.441305 15.9722
340 114 3 0.41 4.72705 10.3946 -12.9623
341 114 3 0.41 4.61445 8.91122 -13.7414
342 114 5 -0.82 4.61909 9.3936 -12.862
343 115 3 0.41 5.94456 0.896601 7.11536
344 115 3 0.41 5.33466 1.64955 8.33162
345 115 5 -0.82 5.09477 0.961657 7.62869
346 116 3 0.41 0.995873 9.47046 18.5254
347 116 3 0.41 1.14909 9.27263 20.1675
348 116 5 -0.82 1.58823 9.63604 19.3619
349 117 3 0.41 9.20354 2.04481 -12.5587
350 117 3 0.41 9.38443 3.32955 -13.5495
351 117 5 -0.82 8.91758 2.43703 -13.4583
352 118 3 0.41 12.132 9.22902 -2.13956
353 118 3 0.41 -0.394868 8.83478 -2.4245
354 118 5 -0.82 -1.04998 9.56847 -2.60951
355 119 3 0.41 -0.00260521 2.00354 -6.47639
356 119 3 0.41 -0.713494 3.412 -6.16849
357 119 5 -0.82 0.220667 3.01204 -6.2904
358 120 3 0.41 2.86377 -0.627664 10.4146
359 120 3 0.41 4.2939 0.230606 10.5163
360 120 5 -0.82 3.41665 0.0750861 9.95926
361 121 3 0.41 -1.03168 7.66065 -17.2803
362 121 3 0.41 12.342 7.06735 -18.5209
363 121 5 -0.82 -0.773967 7.54671 -18.2339
364 122 3 0.41 -0.420584 8.93008 8.74507
365 122 3 0.41 -0.423827 7.57543 7.76768
366 122 5 -0.82 0.0827648 8.06796 8.51606
367 123 3 0.41 7.66129 0.990769 3.11141
368 123 3 0.41 6.58639 1.77481 2.32866
369 123 5 -0.82 7.35516 1.12783 2.15704
370 124 3 0.41 11.2502 6.06592 -6.64775
371 124 3 0.41 12.4821 6.80057 -5.85508
372 124 5 -0.82 12.0979 6.57002 -6.7781
373 125 3 0.41 12.2032 0.714584 -7.68329
374 125 3 0.41 -0.369918 0.0673922 -7.79607
375 125 5 -0.82 -0.866165 0.719866 -7.20395
376 126 3 0.41 -0.847707 2.25526 -13.7283
377 126 3 0.41 -0.567759 0.706729 -13.1377
378 126 5 -0.82 -0.53236 1.6915 -12.8874
379 127 3 0.41 1.53085 11.9992 14.7687
380 127 3 0.41 1.90143 -0.864744 15.7979
381 127 5 -0.82 1.34395 12.2627 15.7523
382 128 3 0.41 4.79539 3.3189 6.10197
383 128 3 0.41 6.25927 4.10532 5.857
384 128 5 -0.82 5.74462 3.23269 5.63222
385 129 3 0.41 12.1625 6.303 0.403269
386 129 3 0.41 12.3456 6.98567 1.81592
387 129 5 -0.82 11.6004 6.60801 1.20981
388 130 3 0.41 11.8458 4.02676 -3.88358
389 130 3 0.41 12.3494 3.59497 -2.39859
390 130 5 -0.82 12.214 4.36982 -3.00052
391 131 3 0.41 2.61575 1.21874 -10.3096
392 131 3 0.41 1.03714 0.61792 -10.7798
393 131 5 -0.82 1.60208 1.4055 -10.3987
394 132 3 0.41 6.90126 9.18812 -4.0705
395 132 3 0.41 6.01459 8.83798 -5.27314
396 132 5 -0.82 6.47606 9.63865 -4.85842
397 133 3 0.41 5.87423 7.60746 4.04202
398 133 3 0.41 4.58521 6.65084 4.54785
399 133 5 -0.82 5.18332 7.46791 4.75159
400 134 3 0.41 11.7507 1.88692 -1.33041
401 134 3 0.41 10.4806 1.52764 -2.08746
402 134 5 -0.82 11.4222 1.71099 -2.32083
403 135 3 0.41 11.3599 1.52845 -21.8986
404 135 3 0.41 9.99861 1.23953 -21.1286
405 135 5 -0.82 10.5442 0.917406 -21.8936
406 136 3 0.41 9.77964 2.32306 11.0765
407 136 3 0.41 11.1971 2.91771 11.3338
408 136 5 -0.82 10.5116 2.38947 11.7652
409 137 3 0.41 6.71717 11.0986 3.14219
410 137 3 0.41 5.59669 11.9947 2.45906
411 137 5 -0.82 5.74786 11.3433 3.20126
412 138 3 0.41 10.5228 -0.978649 16.6329
413 138 3 0.41 9.44259 0.126862 16.9819
414 138 5 -0.82 10.3601 0.0579242 16.5471
415 139 3 0.41 7.90849 12.396 22.6175
416 139 3 0.41 9.35986 12.2152 23.3589
417 139 5 -0.82 8.88401 -1.36935 22.5976
418 140 3 0.41 1.66693 1.62577 -0.174563
419 140 3 0.41 0.376035 1.97854 -0.914295
420 140 5 -0.82 1.38544 2.1355 -0.975624
421 141 3 0.41 7.75431 2.15111 -19.3423
422 141 3 0.41 8.71047 0.93165 -18.8293
423 141 5 -0.82 8.25681 1.34204 -19.6576
424 142 3 0.41 11.9055 9.01283 -7.1541
425 142 3 0.41 -1.05156 9.27006 -8.37311
426 142 5 -0.82 11.9705 9.21829 -8.12788
427 143 3 0.41 -0.471162 0.00346178 9.87308
428 143 3 0.41 0.826522 -0.462617 10.5825
429 143 5 -0.82 0.526474 0.254168 9.93747
430 144 3 0.41 1.23472 2.23167 -12.9936
431 144 3 0.41 2.63655 2.85821 -12.2251
432 144 5 -0.82 2.21702 2.49517 -13.0633
433 145 3 0.41 8.9879 -1.43261 -6.69443
434 145 3 0.41 7.36851 12.456 -6.85292
435 145 5 -0.82 8.19796 -1.17003 -7.33869
436 146 3 0.41 1.05629 2.71747 -9.63409
437 146 3 0.41 0.233842 3.13482 -8.36548
438 146 5 -0.82 0.94923 3.48967 -8.99317
439 147 3 0.41 9.21039 6.12844 -7.665
440 147 3 0.41 9.29407 4.7832 -8.53583
441 147 5 -0.82 9.36069 5.84492 -8.6248
442 148 3 0.41 2.35046 3.58424 19.6756
443 148 3 0.41 1.64225 2.7785 18.602
444 148 5 -0.82 1.51871 3.0525 19.5743
445 149 3 0.41 5.1371 1.82304 -2.31653
446 149 3 0.41 6.52584 2.33271 -2.96949
447 149 5 -0.82 5.64428 1.80382 -3.16748
448 150 3 0.41 2.8081 11.5501 -7.96077
449 150 3 0.41 1.57328 12.2892 -8.70479
450 150 5 -0.82 2.56285 12.3096 -8.58417
451 151 3 0.41 0.914353 10.5564 11.818
452 151 3 0.41 1.01295 9.02466 12.0061
453 151 5 -0.82 0.620173 9.65104 11.4024
454 152 3 0.41 3.73785 9.20154 5.65099
455 152 3 0.41 2.9779 10.1245 6.73059
456 152 5 -0.82 3.75423 10.1215 6.06229
457 153 3 0.41 8.85786 9.75518 8.66023
458 153 3 0.41 8.79445 11.3336 8.9109
459 153 5 -0.82 8.18784 10.5402 8.67436
460 154 3 0.41 -0.0302193 4.9426 -19.3567
461 154 3 0.41 0.614128 5.0165 -17.8415
462 154 5 -0.82 0.592482 4.47322 -18.6899
463 155 3 0.41 4.70089 4.08791 20.7389
464 155 3 0.41 4.81448 4.89645 19.3879
465 155 5 -0.82 4.18053 4.26593 19.8747
466 156 3 0.41 1.83812 6.5514 -20.1101
467 156 3 0.41 1.43434 7.04118 -18.6789
468 156 5 -0.82 2.26636 6.92704 -19.277
469 157 3 0.41 -0.306339 2.33397 14.1216
470 157 3 0.41 -1.19253 3.64203 14.3762
471 157 5 -0.82 -0.743741 2.86615 14.8777
472 158 3 0.41 6.18236 2.61725 -11.2715
473 158 3 0.41 6.566 1.33924 -12.2991
474 158 5 -0.82 5.89966 2.10346 -12.084
475 159 3 0.41 3.12291 11.596 -10.3815
476 159 3 0.41 4.14035 12.147 -11.4306
477 159 5 -0.82 3.24814 11.705 -11.3882
478 160 3 0.41 11.7317 5.46223 19.7516
479 160 3 0.41 10.8487 6.35005 20.7008
480 160 5 -0.82 10.9281 6.1227 19.7385
481 161 3 0.41 11.6418 1.88455 -15.3122
482 161 3 0.41 10.5765 1.16864 -16.3733
483 161 5 -0.82 11.2356 0.959887 -15.58
484 162 3 0.41 5.15587 11.8474 -3.22357
485 162 3 0.41 6.34154 11.0703 -3.94741
486 162 5 -0.82 6.05306 12.0055 -3.67544
487 163 3 0.41 4.50799 0.283443 -10.48
488 163 3 0.41 4.29858 0.541689 -8.90819
489 163 5 -0.82 4.14911 0.970109 -9.84252
490 164 3 0.41 -0.75941 10.2261 -5.64939
491 164 3 0.41 -1.04243 8.8808 -4.92231
492 164 5 -0.82 -1.48849 9.56774 -5.53428
493 165 3 0.41 0.790604 -1.38819 18.5547
494 165 3 0.41 1.72763 11.3757 19.0857
495 165 5 -0.82 1.64087 12.36 19.0785
496 166 3 0.41 10.3604 4.23745 1.72408
497 166 3 0.41 10.0382 2.936 2.63083
498 166 5 -0.82 9.91917 3.98202 2.60103
499 167 3 0.41 6.01959 2.73884 -15.1473
500 167 3 0.41 5.42189 2.40198 -13.74
501 167 5 -0.82 5.1422 2.46333 -14.7139
502 168 3 0.41 0.378895 -1.21517 -9.86556
503 168 3 0.41 -0.961695 12.4391 -8.96516
504 168 5 -0.82 -0.0508203 -1.12179 -8.92099
505 169 3 0.41 8.85613 -1.20137 7.24342
506 169 3 0.41 7.93165 12.0781 6.25457
507 169 5 -0.82 8.90446 12.3268 6.35141
508 170 3 0.41 7.37041 6.03924 8.41587
509 170 3 0.41 7.4807 4.46186 8.3068
510 170 5 -0.82 6.86349 5.23725 8.01852
511 171 3 0.41 5.26306 -0.653288 8.48431
512 171 3 0.41 6.81175 -0.958209 8.86146
513 171 5 -0.82 5.88449 -1.42904 8.79906
514 172 3 0.41 9.07075 3.51567 20.0438
515 172 3 0.41 9.76192 4.80783 19.2944
516 172 5 -0.82 9.03536 4.08036 19.2278
517 173 3 0.41 3.2138 3.26706 7.54232
518 173 3 0.41 3.3199 4.85162 7.20226
519 173 5 -0.82 3.81935 3.96948 7.11616
520 174 3 0.41 7.10257 10.1438 17.3233
521 174 3 0.41 8.2094 9.63289 16.4645
522 174 5 -0.82 7.2115 9.91 16.3499
523 175 3 0.41 -0.900392 4.98345 7.65698
524 175 3 0.41 -0.261171 3.69984 8.19003
525 175 5 -0.82 0.0199539 4.58217 7.78797
526 176 3 0.41 9.41265 6.07456 -5.19772
527 176 3 0.41 7.87393 6.43305 -5.4186
528 176 5 -0.82 8.74736 6.29717 -5.92991
529 177 3 0.41 11.3771 5.02496 12.6706
530 177 3 0.41 11.5345 5.3585 14.2646
531 177 5 -0.82 11.9595 4.78356 13.5134
532 178 3 0.41 4.48814 0.799064 -14.52
533 178 3 0.41 3.07191 0.688175 -13.9553
534 178 5 -0.82 3.87405 0.0953765 -14.0716
535 179 3 0.41 6.88946 -1.49281 -22.2361
536 179 3 0.41 5.79885 11.5258 -21.8423
537 179 5 -0.82 5.99784 12.4993 -21.7861
538 180 3 0.41 11.3549 8.99299 -0.688555
539 180 3 0.41 10.1337 8.12291 -0.876824
540 180 5 -0.82 10.7705 8.6 -1.43338
541 181 3 0.41 1.81114 5.63226 -7.0309
542 181 3 0.41 3.38598 5.29664 -6.61582
543 181 5 -0.82 2.41618 4.98988 -6.51056
544 182 3 0.41 11.9348 6.98806 -12.8321
545 182 3 0.41 10.5976 7.81429 -12.8413
546 182 5 -0.82 11.1529 7.19675 -12.2664
547 183 3 0.41 3.39074 7.3391 -17.9751
548 183 3 0.41 4.58951 6.33078 -17.5966
549 183 5 -0.82 4.36584 7.33556 -17.7107
550 184 3 0.41 11.7175 0.0177041 10.3934
551 184 3 0.41 11.3423 -0.426558 11.8323
552 184 5 -0.82 12.1098 -0.171239 11.2856
553 185 3 0.41 3.69675 11.1258 -16.5161
554 185 3 0.41 5.02616 10.165 -16.7788
555 185 5 -0.82 4.1848 10.5247 -17.2207
556 186 3 0.41 10.4157 9.09923 -8.98354
557 186 3 0.41 8.8241 8.59642 -9.0946
558 186 5 -0.82 9.68919 8.77499 -9.65043
559 187 3 0.41 6.67071 -0.734169 -2.00389
560 187 3 0.41 5.70138 0.24954 -1.25602
561 187 5 -0.82 6.68439 -0.00195251 -1.29088
562 188 3 0.41 6.40141 2.35486 -21.8867
563 188 3 0.41 7.63537 1.50756 -21.0931
564 188 5 -0.82 7.25555 1.83016 -21.9955
565 189 3 0.41 5.3245 0.16301 13.3819
566 189 3 0.41 5.97869 -0.440981 14.734
567 189 5 -0.82 5.75025 -0.694798 13.7411
568 190 3 0.41 2.66532 2.6114 13.9938
569 190 3 0.41 1.92119 3.93538 13.789
570 190 5 -0.82 2.60625 3.53316 14.4227
571 191 3 0.41 8.43287 12.217 20.5236
572 191 3 0.41 7.70018 11.2188 19.5075
573 191 5 -0.82 8.57445 11.3912 20.0247
574 192 3 0.41 6.33557 6.56712 19.5466
575 192 3 0.41 6.63499 6.97157 20.9256
576 192 5 -0.82 6.30304 7.40244 20.1204
577 193 3 0.41 5.4101 3.92949 23.012
578 193 3 0.41 5.4902 2.51892 22.3237
579 193 5 -0.82 5.58729 3.47452 22.1329
580 194 3 0.41 9.92424 1.24414 14.2445
581 194 3 0.41 10.9243 2.11758 13.3409
582 194 5 -0.82 10.7539 1.8467 14.3271
583 195 3 0.41 12.0597 7.36309 11.8897
584 195 3 0.41 11.0187 7.63443 13.1404
585 195 5 -0.82 11.7764 8.06425 12.6081
586 196 3 0.41 10.85 -1.4851 -21.4084
587 196 3 0.41 12.3218 11.7519 -21.6544
588 196 5 -0.82 11.3859 11.9071 -22.0376
589 197 3 0.41 2.61123 -1.12686 6.7922
590 197 3 0.41 4.05115 -0.261039 6.95631
591 197 5 -0.82 3.63445 -1.18336 6.69082
592 198 3 0.41 12.4952 7.08945 -10.0985
593 198 3 0.41 11.9523 6.84525 -8.59477
594 198 5 -0.82 11.8941 6.48751 -9.56866
595 199 3 0.41 3.23586 1.50094 -5.0888
596 199 3 0.41 3.25288 2.96399 -4.46759
597 199 5 -0.82 2.95134 2.41511 -5.31232
598 200 3 0.41 1.29839 10.9525 8.88195
599 200 3 0.41 0.312035 10.274 9.96343
600 200 5 -0.82 0.284972 10.7801 9.09329
601 201 3 0.41 5.33081 10.24 19.3729
602 201 3 0.41 6.32495 9.01986 19.2438
603 201 5 -0.82 6.201 9.97559 18.9284
604 202 3 0.41 7.66076 8.74593 -22.2086
605 202 3 0.41 6.83114 7.7923 -21.2346
606 202 5 -0.82 7.56768 7.7691 -21.944
607 203 3 0.41 4.18792 7.25638 15.4715
608 203 3 0.41 2.7356 6.82054 15.3741
609 203 5 -0.82 3.55812 6.76286 14.8032
610 204 3 0.41 7.23795 9.7614 -11.5747
611 204 3 0.41 7.88269 11.2224 -11.5477
612 204 5 -0.82 7.72862 10.4603 -12.2184
613 205 3 0.41 10.9907 10.4469 -14.0781
614 205 3 0.41 10.4119 12.1124 -14.2529
615 205 5 -0.82 11.0121 11.3145 -14.6431
616 206 3 0.41 2.66714 7.94978 2.47416
617 206 3 0.41 1.50578 6.80382 2.67204
618 206 5 -0.82 1.96787 7.40933 1.98624
619 207 3 0.41 11.1728 -0.07929 6.15706
620 207 3 0.41 12.3959 -0.370728 5.02312
621 207 5 -0.82 11.7787 -0.780375 5.73465
622 208 3 0.41 8.37491 0.707262 -1.46915
623 208 3 0.41 8.7805 1.95882 -0.729912
624 208 5 -0.82 9.21322 1.07796 -1.0617
625 209 3 0.41 -0.278647 -0.0481591 -19.0309
626 209 3 0.41 0.0266656 -1.49195 -18.5321
627 209 5 -0.82 -0.454229 -1.03384 -19.2866
628 210 3 0.41 6.41002 12.066 12.1602
629 210 3 0.41 7.82587 -1.45125 11.9559
630 210 5 -0.82 7.12878 12.0625 11.4516
631 211 3 0.41 9.59169 6.78646 8.77678
632 211 3 0.41 10.6863 5.85037 8.25548
633 211 5 -0.82 10.5274 6.51554 8.94698
634 212 3 0.41 2.4496 2.72785 21.7594
635 212 3 0.41 1.71453 1.30388 22.2472
636 212 5 -0.82 2.59415 1.75189 22.0204
637 213 3 0.41 10.9419 -1.22452 1.93365
638 213 3 0.41 10.6808 11.2603 2.38726
639 213 5 -0.82 10.6018 12.2247 2.66173
640 214 3 0.41 12.3896 0.395688 -5.55086
641 214 3 0.41 11.5521 1.40439 -4.80672
642 214 5 -0.82 11.6556 0.397332 -4.82316
643 215 3 0.41 3.21656 8.96081 -19.4232
644 215 3 0.41 3.91723 10.1002 -18.6965
645 215 5 -0.82 3.79726 9.77785 -19.6658
646 216 3 0.41 2.67067 1.31074 8.82163
647 216 3 0.41 1.30992 1.98939 8.32875
648 216 5 -0.82 2.2893 2.09495 8.24944
649 217 3 0.41 11.9671 -0.416151 -16.149
650 217 3 0.41 11.523 12.0324 -15.947
651 217 5 -0.82 12.0473 -1.3426 -16.5421
652 218 3 0.41 6.85491 1.90066 5.8236
653 218 3 0.41 7.86656 0.84986 5.18488
654 218 5 -0.82 7.21169 0.949314 5.93131
655 219 3 0.41 7.86645 12.1553 -15.2936
656 219 3 0.41 7.77841 11.3864 -13.8819
657 219 5 -0.82 7.98116 11.2701 -14.8825
658 220 3 0.41 9.56255 8.84333 18.0764
659 220 3 0.41 10.5427 8.80295 16.8115
660 220 5 -0.82 9.72687 9.35042 17.1862
661 221 3 0.41 6.43459 9.20528 -19.2564
662 221 3 0.41 5.44146 8.10953 -18.9511
663 221 5 -0.82 6.2656 8.24964 -19.5155
664 222 3 0.41 11.1044 2.23593 -19.2425
665 222 3 0.41 10.7402 0.830115 -18.4626
666 222 5 -0.82 11.4686 1.33129 -18.9785
667 223 3 0.41 5.33848 11.3291 -9.85283
668 223 3 0.41 5.8588 9.85468 -9.54628
669 223 5 -0.82 5.20627 10.5598 -9.22577
670 224 3 0.41 4.24731 10.1016 2.99325
671 224 3 0.41 4.19134 8.60339 3.74499
672 224 5 -0.82 3.70725 9.25683 3.14006
673 225 3 0.41 2.10261 -0.443414 1.06518
674 225 3 0.41 1.01413 0.56096 1.85613
675 225 5 -0.82 1.71776 0.483191 1.11208
676 226 3 0.41 -1.08185 1.57579 18.6188
677 226 3 0.41 -0.0465415 1.93107 17.4747
678 226 5 -0.82 -1.01077 1.65421 17.6023
679 227 3 0.41 11.0639 8.31133 23.1169
680 227 3 0.41 9.88393 8.89341 22.242
681 227 5 -0.82 10.8059 8.43812 22.1712
682 228 3 0.41 7.64019 2.98707 -9.9164
683 228 3 0.41 6.74519 4.19346 -9.38429
684 228 5 -0.82 6.8815 3.56958 -10.2129
685 229 3 0.41 8.59037 11.128 -22.4454
686 229 3 0.41 8.29291 10.4913 -20.913
687 229 5 -0.82 8.25925 10.3155 -21.931
688 230 3 0.41 2.12099 1.37559 4.26219
689 230 3 0.41 2.51428 2.62389 5.00727
690 230 5 -0.82 2.91423 1.87492 4.45785
691 231 3 0.41 2.29891 11.2662 -14.424
692 231 3 0.41 3.20026 12.382 -14.7063
693 231 5 -0.82 2.837 11.5952 -15.1905
694 232 3 0.41 5.14535 3.86326 0.97803
695 232 3 0.41 5.13164 4.59053 -0.416419
696 232 5 -0.82 5.1038 3.64696 -0.00245552
697 233 3 0.41 9.82534 5.02718 -0.461625
698 233 3 0.41 10.6317 3.96656 -1.41665
699 233 5 -0.82 9.75478 4.45545 -1.32616
700 234 3 0.41 2.86087 9.20034 9.25293
701 234 3 0.41 1.54224 8.30451 9.22761
702 234 5 -0.82 2.5386 8.30353 9.52928
703 235 3 0.41 1.36608 4.56009 10.0284
704 235 3 0.41 1.89151 5.84829 9.08316
705 235 5 -0.82 1.99981 5.38823 10.0297
706 236 3 0.41 7.55492 8.62658 -1.41992
707 236 3 0.41 7.22456 7.9046 -2.81833
708 236 5 -0.82 6.96589 8.69164 -2.27072
709 237 3 0.41 11.5773 3.32771 6.10112
710 237 3 0.41 11.5483 2.72438 4.61878
711 237 5 -0.82 12.1501 3.23051 5.26602
712 238 3 0.41 10.3314 12.1262 14.3321
713 238 3 0.41 11.8535 -1.39119 14.6319
714 238 5 -0.82 11.3147 11.8209 14.2355
715 239 3 0.41 10.6405 9.8027 -2.88242
716 239 3 0.41 11.3785 9.88941 -4.36297
717 239 5 -0.82 10.5324 10.1581 -3.83384
718 240 3 0.41 2.92355 9.09834 -16.8493
719 240 3 0.41 1.37848 9.49426 -16.6465
720 240 5 -0.82 1.97924 8.73495 -16.7984
721 241 3 0.41 6.20596 5.95411 -4.30462
722 241 3 0.41 6.43358 6.12722 -2.65788
723 241 5 -0.82 6.84219 6.22911 -3.60301
724 242 3 0.41 -1.2044 5.38829 -1.56658
725 242 3 0.41 -0.363751 6.77461 -1.22001
726 242 5 -0.82 -1.20135 6.23651 -1.01198
727 243 3 0.41 6.08305 5.05403 -12.9208
728 243 3 0.41 7.03498 4.2883 -11.8818
729 243 5 -0.82 7.0616 4.85554 -12.7154
730 244 3 0.41 2.17452 7.87158 21.6219
731 244 3 0.41 1.5016 8.28768 23.0642
732 244 5 -0.82 1.32173 8.23751 22.0719
733 245 3 0.41 7.04742 6.31386 -21.9964
734 245 3 0.41 6.02604 5.33765 -21.2028
735 245 5 -0.82 6.60943 5.3836 -22.0054
736 246 3 0.41 3.53534 8.00389 12.9816
737 246 3 0.41 4.98799 8.54271 12.8374
738 246 5 -0.82 4.1772 8.23972 12.2941
739 247 3 0.41 -0.890557 8.05716 18.7207
740 247 3 0.41 0.204493 6.89868 18.6711
741 247 5 -0.82 -0.219617 7.61611 18.101
742 248 3 0.41 11.5093 3.72687 8.63301
743 248 3 0.41 10.176 3.34926 8.03745
744 248 5 -0.82 11.0979 3.74729 7.70824
745 249 3 0.41 3.90294 -0.558855 -16.9219
746 249 3 0.41 3.12864 -0.907808 -18.2876
747 249 5 -0.82 3.03086 -0.41368 -17.3682
748 250 3 0.41 8.46607 6.31183 21.8221
749 250 3 0.41 7.65219 5.58791 22.9529
750 250 5 -0.82 7.54173 5.90745 22.0133
751 251 3 0.41 0.25353 7.09135 21.4918
752 251 3 0.41 -1.20677 6.74762 22.1143
753 251 5 -0.82 -0.383672 6.33324 21.6723