ITEM: TIMESTEP
70000
ITEM: NUMBER OF ATOMS
1360
ITEM: BOX BOUNDS pp pp pp
-1.5000000000000000e+00 1.2500000000000000e+01
-1.5000000000000000e+00 1.2500000000000000e+01
-2.7500000000000000e+01 2.7500000000000000e+01
ITEM: ATOMS id mol type q x y z
1 1 3 0.41 3.0415 0.394062 4.8564
2 1 3 0.41 1.41842 0.168221 4.92616
3 1 5 -0.82 2.24797 0.503549 5.49499
4 2 3 0.41 2.748 10.1513 -10.9062
5 2 3 0.41 4.14182 10.9438 -10.4497
6 2 5 -0.82 3.45074 10.2397 -10.1836
7 3 3 0.41 -0.287649 0.661221 11.5283
8 3 3 0.41 -1.00517 0.70825 12.9451
9 3 5 -0.82 -1.01488 1.2444 12.0534
10 4 3 0.41 3.89167 5.6116 -14.7714
11 4 3 0.41 3.38372 5.99075 -16.1829
12 4 5 -0.82 3.65008 6.41594 -15.3181
13 5 3 0.41 2.77724 7.70307 -10.5997
14 5 3 0.41 1.72675 6.5406 -11.136
15 5 5 -0.82 2.14624 6.94523 -10.3257
16 6 3 0.41 3.01954 9.63419 -15.0516
17 6 3 0.41 2.25281 10.8222 -14.4704
18 6 5 -0.82 2.20372 10.1603 -15.2475
19 7 3 0.41 1.42212 5.7293 -22.2132
20 7 3 0.41 2.26521 4.69233 -21.4287
21 7 5 -0.82 2.35873 5.29406 -22.2157
22 8 3 0.41 10.9782 3.36993 15.3456
23 8 3 0.41 11.1816 2.71089 13.8219
24 8 5 -0.82 11.6887 3.1111 14.6139
25 9 3 0.41 12.2228 0.0651859 -11.0716
26 9 3 0.41 -0.466818 0.947431 -10.6932
27 9 5 -0.82 -0.858077 0.374277 -11.4329
28 10 3 0.41 4.65883 10.2929 -6.20645
29 10 3 0.41 3.70151 10.6409 -4.9664
30 10 5 -0.82 3.715 10.4278 -5.94659
31 11 3 0.41 3.84581 -0.767943 -5.5793
32 11 3 0.41 2.53594 -0.701557 -4.66488
33 11 5 -0.82 3.36872 -0.156758 -4.98814
34 12 3 0.41 4.75301 12.1072 -15.0432
35 12 3 0.41 5.57869 11.1795 -16.171
36 12 5 -0.82 4.85713 11.8649 -16.0207
37 13 3 0.41 -1.00886 -1.39646 13.7184
38 13 3 0.41 0.175535 11.6349 13.3565
39 13 5 -0.82 -0.797473 11.5711 13.7004
40 14 3 0.41 3.96079 -0.317621 -16.1075
41 14 3 0.41 3.78429 1.17165 -15.4111
42 14 5 -0.82 4.22143 0.687337 -16.1643
43 15 3 0.41 4.83241 6.36815 14.1257
44 15 3 0.41 4.92364 4.78376 13.8718
45 15 5 -0.82 5.02442 5.72081 13.405
46 16 3 0.41 3.9073 11.2535 19.81
47 16 3 0.41 2.8721 10.1019 19.3473
48 16 5 -0.82 3.45575 10.42 20.1612
49 17 3 0.41 6.05747 2.91427 23.2614
50 17 3 0.41 4.9447 2.23945 22.3418
51 17 5 -0.82 5.70684 2.82811 22.3094
52 18 3 0.41 10.4468 11.789 -19.86
53 18 3 0.41 11.2384 11.6092 -18.4798
54 18 5 -0.82 11.2674 11.3338 -19.4443
55 19 3 0.41 10.5762 5.18918 7.19434
56 19 3 0.41 9.29723 5.98239 7.61879
57 19 5 -0.82 10.2459 6.13632 7.32824
58 20 3 0.41 10.0196 5.44732 -2.07138
59 20 3 0.41 11.4567 5.09536 -1.88652
60 20 5 -0.82 10.8007 5.31165 -2.65824
61 21 3 0.41 10.7136 5.95985 22.843
62 21 3 0.41 10.356 5.85316 21.2876
63 21 5 -0.82 10.8148 5.40069 22.0499
64 22 3 0.41 6.87273 6.52896 -17.2596
65 22 3 0.41 6.3973 6.42729 -15.6284
66 22 5 -0.82 6.55229 5.93301 -16.4819
67 23 3 0.41 4.57371 11.424 -21.7616
68 23 3 0.41 3.98075 9.98556 -22.1428
69 23 5 -0.82 4.84538 10.4907 -22.0973
70 24 3 0.41 3.20889 8.10672 -7.28173
71 24 3 0.41 2.99593 7.05899 -6.03947
72 24 5 -0.82 2.49968 7.44016 -6.86569
73 25 3 0.41 4.3657 4.40791 -11.9049
74 25 3 0.41 3.03481 5.14241 -12.2844
75 25 5 -0.82 4.05445 5.12508 -12.5279
76 26 3 0.41 9.53914 0.403278 -10.5942
77 26 3 0.41 10.6534 -0.239402 -9.68252
78 26 5 -0.82 10.5257 0.0856038 -10.6568
79 27 3 0.41 2.49436 11.3033 -16.5035
80 27 3 0.41 1.30869 12.236 -16.8984
81 27 5 -0.82 2.12474 11.8312 -17.2953
82 28 3 0.41 1.10429 5.88674 -8.88777
83 28 3 0.41 0.348563 6.11496 -7.51363
84 28 5 -0.82 0.415043 5.49688 -8.29003
85 29 3 0.41 -1.09759 -0.277516 18.1978
86 29 3 0.41 11.8764 -0.406201 19.4524
87 29 5 -0.82 -1.11456 -0.396735 19.2467
88 30 3 0.41 -1.16139 -1.03677 8.56919
89 30 3 0.41 11.3934 -0.638857 7.94097
90 30 5 -0.82 11.8562 -1.10881 8.75116
91 31 3 0.41 8.63737 0.190428 -19.2272
92 31 3 0.41 9.14837 -1.01619 -18.2405
93 31 5 -0.82 9.21496 -0.643628 -19.1816
94 32 3 0.41 12.2233 4.11136 -21.1927
95 32 3 0.41 -0.844659 5.26452 -21.9875
96 32 5 -0.82 -1.27529 4.32854 -22.0589
97 33 3 0.41 12.3238 2.94122 -6.03768
98 33 3 0.41 11.5415 1.84457 -6.92453
99 33 5 -0.82 12.3203 1.95477 -6.30826
100 34 3 0.41 12.3823 8.57327 4.18604
101 34 3 0.41 12.2189 10.1803 4.54233
102 34 5 -0.82 12.3549 9.49323 3.84759
103 35 3 0.41 -1.00371 7.68851 12.4004
104 35 3 0.41 11.4646 7.53053 12.7519
105 35 5 -0.82 12.0817 7.6017 11.962
106 36 3 0.41 7.88232 5.82633 -2.19845
107 36 3 0.41 7.84416 7.02236 -3.0913
108 36 5 -0.82 8.00263 6.82826 -2.1283
109 37 3 0.41 11.7337 8.92939 19.2679
110 37 3 0.41 11.4296 10.2314 20.0107
111 37 5 -0.82 12.0958 9.85772 19.3368
112 38 3 0.41 10.2151 10.0867 -4.24263
113 38 3 0.41 9.79176 9.94039 -2.65942
114 38 5 -0.82 10.3843 10.4883 -3.34755
115 39 3 0.41 7.12807 10.2063 -13.803
116 39 3 0.41 8.80921 10.2518 -14.1544
117 39 5 -0.82 7.8468 10.4918 -14.5104
118 40 3 0.41 4.11413 11.3793 -18.1694
119 40 3 0.41 4.86088 11.8337 -19.6072
120 40 5 -0.82 4.74716 11.0943 -18.899
121 41 3 0.41 4.9628 2.71358 -18.1739
122 41 3 0.41 5.16919 1.39172 -19.3107
123 41 5 -0.82 4.86623 2.35066 -19.1253
124 42 3 0.41 6.26234 7.91965 4.06972
125 42 3 0.41 7.28481 7.16741 3.05694
126 42 5 -0.82 6.7305 8.04997 3.15914
127 43 3 0.41 9.74232 -1.21644 15.7231
128 43 3 0.41 10.4484 11.477 15.6768
129 43 5 -0.82 9.97726 12.14 15.0428
130 44 3 0.41 3.70401 2.55044 -14.3859
131 44 3 0.41 2.47225 3.47419 -15.1335
132 44 5 -0.82 3.47432 3.30631 -15.0845
133 45 3 0.41 8.09895 4.66915 2.67167
134 45 3 0.41 8.3274 5.70706 1.67334
135 45 5 -0.82 8.60616 5.51861 2.62873
136 46 3 0.41 -1.3028 1.43059 9.70542
137 46 3 0.41 11.4804 0.590619 9.30151
138 46 5 -0.82 11.7227 1.54548 9.38606
139 47 3 0.41 4.05852 11.8063 -3.17823
140 47 3 0.41 2.95414 10.9483 -2.52456
141 47 5 -0.82 3.29526 11.2198 -3.46715
142 48 3 0.41 1.37774 2.54643 20.5972
143 48 3 0.41 1.00582 2.52418 19.0508
144 48 5 -0.82 0.959862 1.88907 19.9199
145 49 3 0.41 -1.23622 11.7403 -5.06434
146 49 3 0.41 12.3638 11.103 -6.55199
147 49 5 -0.82 12.1486 11.8225 -5.88812
148 50 3 0.41 11.1674 12.1281 23.4401
149 50 3 0.41 10.7411 -0.841156 22.2471
150 50 5 -0.82 11.3634 12.4068 22.4773
151 51 3 0.41 2.58479 -0.508403 10.8889
152 51 3 0.41 3.86844 -1.32295 11.5724
153 51 5 -0.82 3.37755 -0.379394 11.5372
154 52 3 0.41 12.4269 3.78221 -14.3807
155 52 3 0.41 -0.569921 3.70537 -13.0734
156 52 5 -0.82 -1.32811 3.16162 -13.6028
157 53 3 0.41 1.94501 3.9778 2.49104
158 53 3 0.41 2.99845 5.05107 1.81301
159 53 5 -0.82 2.01131 4.92772 2.06054
160 54 3 0.41 6.95386 8.08011 13.3261
161 54 3 0.41 6.33123 6.86648 12.5492
162 54 5 -0.82 6.46533 7.89244 12.4932
163 55 3 0.41 1.33878 6.43849 16.0507
164 55 3 0.41 1.6362 7.20328 14.7016
165 55 5 -0.82 1.90818 7.19057 15.6611
166 56 3 0.41 0.272417 3.02476 9.19744
167 56 3 0.41 1.70395 3.34656 9.04105
168 56 5 -0.82 0.924147 3.11422 8.45344
169 57 3 0.41 6.32884 -1.11411 -16.7437
170 57 3 0.41 7.37557 0.157263 -16.7241
171 57 5 -0.82 7.20918 -0.82436 -17.1091
172 58 3 0.41 0.897201 10.6909 -19.6775
173 58 3 0.41 2.38062 11.0086 -19.0641
174 58 5 -0.82 1.86384 10.413 -19.7173
175 59 3 0.41 0.908852 5.05176 6.1006
176 59 3 0.41 0.37349 6.09256 7.23286
177 59 5 -0.82 0.313488 5.83922 6.24332
178 60 3 0.41 5.1168 8.47543 6.48449
179 60 3 0.41 6.32509 7.5731 5.88145
180 60 5 -0.82 5.42496 8.01521 5.63216
181 61 3 0.41 9.65324 -0.318605 13.7615
182 61 3 0.41 9.98644 1.07024 13.0141
183 61 5 -0.82 9.27672 0.580849 13.4961
184 62 3 0.41 1.40678 3.40174 6.86624
185 62 3 0.41 2.80466 4.21123 6.58445
186 62 5 -0.82 2.00732 3.76525 6.10967
187 63 3 0.41 2.61286 5.7885 19.5775
188 63 3 0.41 2.42698 4.62209 18.5088
189 63 5 -0.82 3.0007 5.43046 18.7086
190 64 3 0.41 9.55729 -1.13904 7.04922
191 64 3 0.41 8.38317 12.325 7.88311
192 64 5 -0.82 9.15675 11.9816 7.30865
193 65 3 0.41 -0.983447 4.18183 -2.8527
194 65 3 0.41 -1.15402 3.70819 -4.3927
195 65 5 -0.82 -0.732622 3.47474 -3.5039
196 66 3 0.41 -1.47889 2.5538 1.2396
197 66 3 0.41 -0.277832 3.47229 1.85387
198 66 5 -0.82 -0.530898 2.97143 0.996231
199 67 3 0.41 8.57323 10.6862 11.4987
200 67 3 0.41 7.76001 11.8861 10.6309
201 67 5 -0.82 8.0212 10.8969 10.6915
202 68 3 0.41 7.52031 7.78808 17.861
203 68 3 0.41 7.12956 6.34724 17.479
204 68 5 -0.82 7.7106 7.0807 17.1734
205 69 3 0.41 -1.08705 0.0432137 -22.0678
206 69 3 0.41 -1.23815 -1.45867 -21.8468
207 69 5 -0.82 12.1872 -0.644186 -21.8976
208 70 3 0.41 8.02824 4.73341 -20.3528
209 70 3 0.41 7.25377 4.08511 -19.184
210 70 5 -0.82 7.96524 4.73574 -19.3673
211 71 3 0.41 6.40519 4.93176 5.09343
212 71 3 0.41 5.24266 4.20982 4.33188
213 71 5 -0.82 5.64698 5.14382 4.39881
214 72 3 0.41 3.12571 7.1918 18.2327
215 72 3 0.41 3.82829 8.64704 18.0657
216 72 5 -0.82 2.85863 8.20039 18.0838
217 73 3 0.41 0.431224 12.1125 -8.73014
218 73 3 0.41 -0.610237 -0.636523 -8.62124
219 73 5 -0.82 -0.312116 -1.41648 -9.23188
220 74 3 0.41 6.71022 6.95314 0.658987
221 74 3 0.41 7.57641 6.55233 -0.598263
222 74 5 -0.82 7.58358 6.56745 0.410776
223 75 3 0.41 -0.797817 5.31406 -5.59154
224 75 3 0.41 11.6518 5.09261 -6.00308
225 75 5 -0.82 -1.48813 4.59065 -5.85309
226 76 3 0.41 6.66372 2.36818 -16.197
227 76 3 0.41 6.71594 1.32444 -15.0143
228 76 5 -0.82 7.34001 1.73301 -15.6596
229 77 3 0.41 -1.34083 9.39558 16.0078
230 77 3 0.41 -1.17084 7.84384 16.0115
231 77 5 -0.82 -0.643982 8.68313 15.843
232 78 3 0.41 -0.220355 8.64992 -9.90277
233 78 3 0.41 12.4527 9.29385 -10.5762
234 78 5 -0.82 -0.967458 8.39716 -10.5792
235 79 3 0.41 0.841771 11.6391 7.04629
236 79 3 0.41 0.431557 -0.836671 7.29799
237 79 5 -0.82 0.05141 12.2543 6.95094
238 80 3 0.41 1.48947 1.55651 -16.2749
239 80 3 0.41 2.70542 1.12805 -17.4157
240 80 5 -0.82 1.69051 1.18238 -17.2129
241 81 3 0.41 2.25619 -0.0442858 -1.66272
242 81 3 0.41 0.876283 -0.724786 -1.25307
243 81 5 -0.82 1.28791 -0.038816 -1.87492
244 82 3 0.41 5.1648 4.7929 1.40209
245 82 3 0.41 5.08805 5.35622 2.85095
246 82 5 -0.82 4.59881 5.45301 1.95699
247 83 3 0.41 0.12353 9.87976 -1.57532
248 83 3 0.41 -0.273982 9.85581 -3.12627
249 83 5 -0.82 0.374911 10.3243 -2.5147
250 84 3 0.41 6.08021 12.2367 3.18764
251 84 3 0.41 6.63609 11.0159 4.06361
252 84 5 -0.82 6.64508 11.4492 3.15668
253 85 3 0.41 7.80899 10.1212 23.1308
254 85 3 0.41 6.85931 9.8644 21.8793
255 85 5 -0.82 7.85394 9.72454 22.1718
256 86 3 0.41 -0.725827 6.40415 -19.4057
257 86 3 0.41 -0.41804 4.9288 -18.6998
258 86 5 -0.82 -1.06687 5.7516 -18.7314
259 87 3 0.41 10.5273 11.04 2.17786
260 87 3 0.41 10.4994 -1.49689 3.02376
261 87 5 -0.82 10.9972 11.9639 2.35283
262 88 3 0.41 11.1544 6.00487 15.2492
263 88 3 0.41 11.2497 6.16214 16.8587
264 88 5 -0.82 11.8186 5.94791 16.0354
265 89 3 0.41 9.45468 5.2579 -22.0087
266 89 3 0.41 7.87733 5.45987 -21.984
267 89 5 -0.82 8.57743 4.76227 -21.9583
268 90 3 0.41 9.22055 4.22948 -12.8836
269 90 3 0.41 9.44823 4.9245 -14.2409
270 90 5 -0.82 9.67513 5.04227 -13.2584
271 91 3 0.41 2.33615 10.5527 6.43539
272 91 3 0.41 3.39845 11.8093 6.82455
273 91 5 -0.82 2.69111 11.1695 7.19806
274 92 3 0.41 11.4628 2.7082 4.58279
275 92 3 0.41 11.7712 1.2616 4.13622
276 92 5 -0.82 11.0385 1.9469 4.07534
277 93 3 0.41 8.47491 8.3472 10.5716
278 93 3 0.41 9.06684 7.69736 11.9338
279 93 5 -0.82 9.25173 8.35094 11.1837
280 94 3 0.41 5.23955 2.00481 5.02755
281 94 3 0.41 3.69471 2.64561 5.16365
282 94 5 -0.82 4.55047 2.68315 4.65369
283 95 3 0.41 7.75097 0.340596 9.48339
284 95 3 0.41 8.76528 0.434958 10.7571
285 95 5 -0.82 8.25223 1.01756 10.1233
286 96 3 0.41 2.11065 11.0795 11.3677
287 96 3 0.41 2.00581 10.2729 12.7867
288 96 5 -0.82 1.48874 10.8867 12.153
289 97 3 0.41 8.74923 0.584355 17.1721
290 97 3 0.41 9.4974 1.43242 16.0615
291 97 5 -0.82 9.55009 0.504557 16.4967
292 98 3 0.41 6.29304 -0.309312 -20.4199
293 98 3 0.41 6.39208 0.136552 -18.8796
294 98 5 -0.82 5.75853 -0.201216 -19.5736
295 99 3 0.41 -1.12483 9.43214 -5.43374
296 99 3 0.41 11.9689 9.05508 -4.06804
297 99 5 -0.82 -1.13558 9.28604 -4.40617
298 100 3 0.41 8.66273 9.92886 1.6263
299 100 3 0.41 9.73526 8.93361 2.35225
300 100 5 -0.82 9.67531 9.67209 1.66061
301 101 3 0.41 9.24271 5.27209 -6.81204
302 101 3 0.41 9.92348 6.50673 -6.16136
303 101 5 -0.82 9.9408 5.96183 -6.99936
304 102 3 0.41 9.60632 11.4605 -22.0408
305 102 3 0.41 10.4646 -1.12543 -21.7078
306 102 5 -0.82 9.54791 12.474 -21.9865
307 103 3 0.41 7.05929 11.1917 16.5722
308 103 3 0.41 8.23765 10.4078 17.2624
309 103 5 -0.82 7.35694 10.275 16.786
310 104 3 0.41 11.0281 4.81765 -16.6786
311 104 3 0.41 11.7995 3.56186 -16.673
312 104 5 -0.82 11.6779 4.37695 -16.0346
313 105 3 0.41 -0.750274 0.860012 2.72608
314 105 3 0.41 -0.112142 -0.0144482 3.93903
315 105 5 -0.82 -0.580837 0.907261 3.74115
316 106 3 0.41 3.51297 6.82858 -3.99874
317 106 3 0.41 2.738 5.39323 -4.40026
318 106 5 -0.82 3.30051 6.1629 -4.73329
319 107 3 0.41 3.61284 -0.891231 -8.26243
320 107 3 0.41 3.70198 11.6954 -7.4721
321 107 5 -0.82 4.23252 12.4478 -7.83896
322 108 3 0.41 -0.8407 8.67056 -19.8438
323 108 3 0.41 12.3087 9.80162 -19.1514
324 108 5 -0.82 -0.848079 9.19898 -18.9974
325 109 3 0.41 3.32149 8.24401 -19.4266
326 109 3 0.41 4.56858 9.47565 -19.5189
327 109 5 -0.82 4.30863 8.48444 -19.613
328 110 3 0.41 10.0214 1.54362 1.05221
329 110 3 0.41 10.3598 2.28242 2.45605
330 110 5 -0.82 10.2504 2.41696 1.46619
331 111 3 0.41 9.43814 7.57829 -9.77776
332 111 3 0.41 9.34891 7.24285 -11.3048
333 111 5 -0.82 10.0339 7.17051 -10.5039
334 112 3 0.41 11.247 0.959317 -21.8686
335 112 3 0.41 11.1358 2.56375 -21.5071
336 112 5 -0.82 10.6993 1.80028 -21.997
337 113 3 0.41 3.65402 7.31275 15.5363
338 113 3 0.41 4.77334 8.44468 15.7271
339 113 5 -0.82 4.65314 7.48422 15.4252
340 114 3 0.41 0.727842 -1.48587 -14.4057
341 114 3 0.41 1.32759 0.0861482 -14.2138
342 114 5 -0.82 1.53877 -0.886332 -14.6049
343 115 3 0.41 7.69235 9.84658 9.15417
344 115 3 0.41 7.42429 8.57753 8.28506
345 115 5 -0.82 7.75203 9.53144 8.21381
346 116 3 0.41 8.52604 8.10356 20.2872
347 116 3 0.41 9.5319 8.17557 21.4801
348 116 5 -0.82 9.22243 7.51565 20.7793
349 117 3 0.41 -1.16791 8.5047 -12.46
350 117 3 0.41 -1.44283 8.0793 -13.9256
351 117 5 -0.82 12.3572 8.84152 -13.2685
352 118 3 0.41 5.29299 9.26599 -0.510288
353 118 3 0.41 4.5645 10.5941 -0.918433
354 118 5 -0.82 5.18323 9.89355 -1.29589
355 119 3 0.41 7.81756 2.4973 -5.26509
356 119 3 0.41 6.57124 1.87371 -4.42369
357 119 5 -0.82 7.27153 1.60509 -5.134
358 120 3 0.41 2.49852 0.535421 8.43941
359 120 3 0.41 2.87113 0.777247 6.91657
360 120 5 -0.82 3.30252 0.740911 7.87995
361 121 3 0.41 9.38751 6.71058 -13.4474
362 121 3 0.41 9.80932 8.19515 -13.6528
363 121 5 -0.82 9.20407 7.67819 -13.041
364 122 3 0.41 1.77956 2.05106 11.526
365 122 3 0.41 2.5956 1.0345 12.1778
366 122 5 -0.82 2.10164 1.88537 12.4489
367 123 3 0.41 0.473949 12.2132 4.95222
368 123 3 0.41 1.25984 12.1708 3.52739
369 123 5 -0.82 0.64897 -1.25701 4.08018
370 124 3 0.41 10.9601 7.2325 -7.85052
371 124 3 0.41 11.296 8.48946 -8.91984
372 124 5 -0.82 11.3842 8.15731 -7.98671
373 125 3 0.41 -1.17602 1.52301 -14.0916
374 125 3 0.41 11.9356 0.278117 -14.3465
375 125 5 -0.82 12.4941 0.899296 -14.8642
376 126 3 0.41 1.35435 2.15047 -12.4957
377 126 3 0.41 0.690276 0.850961 -12.2053
378 126 5 -0.82 1.17905 1.27277 -12.9935
379 127 3 0.41 4.51278 5.50574 17.4848
380 127 3 0.41 5.52133 6.56574 16.7055
381 127 5 -0.82 5.43313 5.90212 17.4567
382 128 3 0.41 11.6474 2.88444 8.45191
383 128 3 0.41 10.518 3.36855 7.47325
384 128 5 -0.82 11.4447 3.64211 7.81007
385 129 3 0.41 7.25494 4.15785 0.294884
386 129 3 0.41 6.67675 3.01923 0.8976
387 129 5 -0.82 6.31308 3.90262 0.56669
388 130 3 0.41 1.52972 4.39005 -5.20649
389 130 3 0.41 0.432497 3.96874 -6.33557
390 130 5 -0.82 1.36389 3.75955 -5.98184
391 131 3 0.41 -0.972549 -0.358527 -16.6042
392 131 3 0.41 -1.01442 12.0174 -16.6085
393 131 5 -0.82 -0.675643 -1.16261 -17.1657
394 132 3 0.41 1.08245 7.07579 -6.01317
395 132 3 0.41 0.268965 7.06891 -4.64758
396 132 5 -0.82 0.167499 6.74059 -5.60794
397 133 3 0.41 8.55721 -0.187885 4.60055
398 133 3 0.41 9.93556 0.439603 4.21275
399 133 5 -0.82 9.36497 -0.388156 3.96538
400 134 3 0.41 11.5782 1.70739 -1.58919
401 134 3 0.41 12.4923 1.30543 -0.321015
402 134 5 -0.82 -1.46077 1.55836 -1.30695
403 135 3 0.41 8.22721 3.01182 -21.4822
404 135 3 0.41 8.94809 1.60285 -21.8062
405 135 5 -0.82 8.08071 2.01006 -21.4484
406 136 3 0.41 3.50138 10.1768 10.0931
407 136 3 0.41 2.62806 10.8489 8.91196
408 136 5 -0.82 2.54122 10.3128 9.74274
409 137 3 0.41 -1.43068 11.8164 6.29281
410 137 3 0.41 11.2301 12.1773 5.41969
411 137 5 -0.82 11.8732 11.4245 5.65473
412 138 3 0.41 -0.67217 7.04404 18.689
413 138 3 0.41 0.0866773 6.07375 17.7621
414 138 5 -0.82 0.034653 7.06057 17.9689
415 139 3 0.41 10.6151 11.1794 21.4251
416 139 3 0.41 9.15052 10.4262 21.3822
417 139 5 -0.82 10.0449 10.5487 20.9128
418 140 3 0.41 5.53842 7.93109 -3.88341
419 140 3 0.41 4.90798 8.89108 -2.67126
420 140 5 -0.82 4.70204 8.17677 -3.3756
421 141 3 0.41 2.91066 -0.990009 -18.5981
422 141 3 0.41 2.05888 -0.241732 -19.7495
423 141 5 -0.82 2.9768 -0.633478 -19.4901
424 142 3 0.41 12.3572 7.20549 -4.74937
425 142 3 0.41 11.2073 6.53944 -3.95734
426 142 5 -0.82 11.3864 7.07029 -4.83106
427 143 3 0.41 7.11272 4.81719 14.6833
428 143 3 0.41 6.96503 3.79004 16.0911
429 143 5 -0.82 6.68462 3.98577 15.0996
430 144 3 0.41 2.84616 2.77113 -9.30084
431 144 3 0.41 2.34598 3.31638 -10.9094
432 144 5 -0.82 2.75273 2.52204 -10.3208
433 145 3 0.41 7.84252 4.86236 -5.58414
434 145 3 0.41 7.75709 3.56319 -6.68988
435 145 5 -0.82 8.29144 3.97562 -5.91529
436 146 3 0.41 9.72874 2.66193 -8.90171
437 146 3 0.41 8.62888 2.14465 -7.95766
438 146 5 -0.82 9.64564 2.08193 -8.0981
439 147 3 0.41 -1.4533 5.0097 -8.57732
440 147 3 0.41 11.0114 5.29343 -8.19747
441 147 5 -0.82 11.6106 4.8166 -8.89991
442 148 3 0.41 2.23326 -1.26707 20.6533
443 148 3 0.41 2.79223 -0.466272 19.4141
444 148 5 -0.82 1.96054 -0.920987 19.7223
445 149 3 0.41 4.09655 4.20287 -0.465911
446 149 3 0.41 3.66521 3.06777 0.725835
447 149 5 -0.82 3.37078 3.516 -0.169802
448 150 3 0.41 1.5146 8.52159 -8.99117
449 150 3 0.41 1.47323 10.2213 -8.90613
450 150 5 -0.82 0.900694 9.33609 -8.92956
451 151 3 0.41 0.539551 7.0088 9.4322
452 151 3 0.41 0.0993936 5.44091 9.39903
453 151 5 -0.82 -0.0887664 6.34524 8.98679
454 152 3 0.41 9.87589 9.87541 3.79894
455 152 3 0.41 8.69081 10.9621 3.7846
456 152 5 -0.82 9.22261 10.3036 4.35013
457 153 3 0.41 -1.39221 7.31332 9.12579
458 153 3 0.41 11.1113 7.31156 8.43445
459 153 5 -0.82 11.7308 7.86105 9.03943
460 154 3 0.41 4.6797 3.44475 -16.2677
461 154 3 0.41 5.76185 4.55303 -16.773
462 154 5 -0.82 5.59088 3.5142 -16.7438
463 155 3 0.41 2.64096 12.4279 16.7238
464 155 3 0.41 3.96479 -1.3365 15.7589
465 155 5 -0.82 3.63782 12.3435 16.6772
466 156 3 0.41 1.30128 7.15142 -19.5795
467 156 3 0.41 1.50168 7.54296 -18.0646
468 156 5 -0.82 2.01314 7.40115 -18.9147
469 157 3 0.41 7.52914 0.860012 18.9605
470 157 3 0.41 6.55332 1.3387 17.768
471 157 5 -0.82 7.3938 0.846148 17.931
472 158 3 0.41 -1.31688 11.2735 -11.4982
473 158 3 0.41 -0.218762 12.3283 -11.3723
474 158 5 -0.82 -0.474452 11.5348 -12.0046
475 159 3 0.41 1.02463 10.4988 -11.8933
476 159 3 0.41 1.49386 9.13524 -12.7335
477 159 5 -0.82 1.87087 10.01 -12.2734
478 160 3 0.41 11.0844 10.722 17.4791
479 160 3 0.41 9.94221 11.1866 18.393
480 160 5 -0.82 10.0906 10.7474 17.5324
481 161 3 0.41 12.1914 -0.00724934 -20.1123
482 161 3 0.41 10.7055 0.280642 -19.4385
483 161 5 -0.82 11.6331 0.6539 -19.5295
484 162 3 0.41 10.5635 10.3393 -10.5547
485 162 3 0.41 11.7204 11.033 -9.60166
486 162 5 -0.82 11.568 10.4701 -10.4617
487 163 3 0.41 -0.945586 10.1853 -15.0595
488 163 3 0.41 -0.720065 11.0497 -13.7037
489 163 5 -0.82 -0.897883 11.125 -14.7359
490 164 3 0.41 5.56452 9.32946 -7.29647
491 164 3 0.41 6.65831 9.03808 -6.07486
492 164 5 -0.82 6.22848 9.77896 -6.68304
493 165 3 0.41 0.330623 9.57714 20.2876
494 165 3 0.41 0.930005 8.85121 21.6555
495 165 5 -0.82 0.197591 9.47945 21.2932
496 166 3 0.41 12.1857 5.03981 3.01274
497 166 3 0.41 10.8056 4.41 2.26677
498 166 5 -0.82 11.2806 4.57327 3.14108
499 167 3 0.41 4.28213 6.74113 -12.3733
500 167 3 0.41 3.20038 7.94158 -12.7145
501 167 5 -0.82 4.07651 7.74355 -12.2284
502 168 3 0.41 2.20814 0.967321 -9.16433
503 168 3 0.41 1.59861 -0.11206 -8.09417
504 168 5 -0.82 2.40653 0.0915864 -8.69105
505 169 3 0.41 2.46693 8.43765 0.474671
506 169 3 0.41 3.32966 8.95468 1.63913
507 169 5 -0.82 2.39044 8.58945 1.46497
508 170 3 0.41 -0.0694072 1.81241 7.39154
509 170 3 0.41 -0.754291 1.70183 6.00026
510 170 5 -0.82 -0.654617 1.17629 6.83473
511 171 3 0.41 9.81787 10.8567 8.61731
512 171 3 0.41 11.3059 11.304 9.16449
513 171 5 -0.82 10.6626 10.5276 9.17043
514 172 3 0.41 -0.537954 12.0061 16.8715
515 172 3 0.41 -0.985794 11.6506 15.5584
516 172 5 -0.82 -1.3502 11.5035 16.5082
517 173 3 0.41 6.44359 -1.32379 8.99034
518 173 3 0.41 6.74845 -0.456099 7.69403
519 173 5 -0.82 7.20995 -0.756413 8.59572
520 174 3 0.41 11.7732 7.42787 20.4666
521 174 3 0.41 11.0288 6.58955 19.2728
522 174 5 -0.82 11.9815 6.93945 19.6083
523 175 3 0.41 12.4098 3.65537 6.39108
524 175 3 0.41 -0.742501 4.45106 5.15868
525 175 5 -0.82 -1.07804 3.57237 5.49124
526 176 3 0.41 -0.67183 5.21382 -0.715729
527 176 3 0.41 -1.31504 3.95618 -0.149685
528 176 5 -0.82 12.4875 4.64656 -0.836164
529 177 3 0.41 11.5703 2.07506 11.9811
530 177 3 0.41 10.4164 2.30173 10.9147
531 177 5 -0.82 10.6204 2.42485 11.8796
532 178 3 0.41 12.3786 12.4904 -12.9791
533 178 3 0.41 11.1817 -0.474496 -12.3581
534 178 5 -0.82 11.4583 -1.09342 -13.1286
535 179 3 0.41 2.2826 9.8327 -21.1828
536 179 3 0.41 1.52981 8.84508 -22.1831
537 179 5 -0.82 2.32935 9.49649 -22.1856
538 180 3 0.41 4.29812 7.85165 1.31441
539 180 3 0.41 5.83763 8.43384 1.4792
540 180 5 -0.82 5.03617 8.30308 0.803766
541 181 3 0.41 9.89072 -0.0336085 -4.43159
542 181 3 0.41 9.96478 1.32061 -5.25279
543 181 5 -0.82 9.86927 0.297037 -5.32188
544 182 3 0.41 -1.29225 6.87096 -11.1697
545 182 3 0.41 -0.745338 5.5156 -11.6319
546 182 5 -0.82 12.3408 6.01058 -11.576
547 183 3 0.41 0.480404 6.78041 -16.1515
548 183 3 0.41 -0.149011 5.6805 -17.0003
549 183 5 -0.82 0.425521 5.80806 -16.2095
550 184 3 0.41 1.64772 8.82818 10.2309
551 184 3 0.41 0.9006 7.92875 11.4798
552 184 5 -0.82 0.978827 8.06583 10.5027
553 185 3 0.41 1.41503 6.75632 -13.7153
554 185 3 0.41 0.46727 8.04471 -14.0651
555 185 5 -0.82 1.15021 7.68283 -13.39
556 186 3 0.41 0.182733 6.34031 -1.94857
557 186 3 0.41 -0.90958 7.23188 -2.76837
558 186 5 -0.82 -0.220285 6.48358 -2.87254
559 187 3 0.41 6.32479 2.14193 -2.00363
560 187 3 0.41 7.00627 1.2883 -0.767105
561 187 5 -0.82 7.12033 1.56352 -1.75215
562 188 3 0.41 3.86081 -0.660769 -21.0407
563 188 3 0.41 5.20589 -0.637826 -22.0108
564 188 5 -0.82 4.19674 -0.860534 -21.9708
565 189 3 0.41 5.22677 11.1471 12.7236
566 189 3 0.41 5.68891 11.1122 11.228
567 189 5 -0.82 4.81908 11.2595 11.8025
568 190 3 0.41 4.29508 10.2287 14.14
569 190 3 0.41 3.46719 9.09692 13.287
570 190 5 -0.82 3.38165 9.88966 13.8733
571 191 3 0.41 3.88571 3.58162 14.6722
572 191 3 0.41 2.62436 4.5612 14.8246
573 191 5 -0.82 3.37153 4.09115 15.4214
574 192 3 0.41 7.89264 12.1399 20.305
575 192 3 0.41 6.88238 11.7552 19.0746
576 192 5 -0.82 7.82866 12.0281 19.3139
577 193 3 0.41 4.46344 0.898885 20.0917
578 193 3 0.41 4.28854 1.42177 18.5164
579 193 5 -0.82 4.35206 0.619431 19.122
580 194 3 0.41 1.63538 11.1553 15.4665
581 194 3 0.41 2.34673 9.72985 15.2635
582 194 5 -0.82 1.69353 10.221 15.8851
583 195 3 0.41 1.99898 5.01271 12.4616
584 195 3 0.41 0.783185 5.32778 13.4004
585 195 5 -0.82 1.82642 5.16492 13.4626
586 196 3 0.41 10.9415 9.59965 -22.0907
587 196 3 0.41 9.56406 9.40238 -21.2547
588 196 5 -0.82 9.91954 9.73538 -22.1552
589 197 3 0.41 11.1524 9.61909 6.12908
590 197 3 0.41 11.1152 8.87068 7.47328
591 197 5 -0.82 10.5015 9.12496 6.68541
592 198 3 0.41 11.2896 2.43713 -10.9095
593 198 3 0.41 11.7106 3.14546 -12.288
594 198 5 -0.82 11.2018 3.29215 -11.4376
595 199 3 0.41 6.19107 11.6277 -5.56842
596 199 3 0.41 5.2498 12.4128 -6.60193
597 199 5 -0.82 5.70901 -1.4568 -5.68061
598 200 3 0.41 4.06836 9.09892 7.83367
599 200 3 0.41 5.31676 9.02716 8.77661
600 200 5 -0.82 4.99831 9.4499 7.8793
601 201 3 0.41 9.37802 4.34073 15.3885
602 201 3 0.41 8.75315 3.79772 16.763
603 201 5 -0.82 9.43215 3.59866 16.0589
604 202 3 0.41 5.31226 5.06631 -21.1381
605 202 3 0.41 4.22303 4.94427 -22.2388
606 202 5 -0.82 5.19796 4.64921 -22.0597
607 203 3 0.41 0.55323 3.68601 17.5736
608 203 3 0.41 1.97144 3.40167 17.0289
609 203 5 -0.82 1.45905 3.38253 17.9244
610 204 3 0.41 5.90472 8.61391 -11.5492
611 204 3 0.41 7.27383 8.99952 -10.8545
612 204 5 -0.82 6.50935 8.31393 -10.7747
613 205 3 0.41 9.54842 0.591283 -13.7042
614 205 3 0.41 10.7191 1.62168 -14.167
615 205 5 -0.82 9.95135 1.5053 -13.5428
616 206 3 0.41 7.12754 5.18698 7.35013
617 206 3 0.41 7.87419 4.51519 6.16175
618 206 5 -0.82 6.91928 4.65492 6.53746
619 207 3 0.41 1.94397 8.90135 7.40504
620 207 3 0.41 2.45311 7.53465 6.78517
621 207 5 -0.82 2.47493 8.06854 7.6111
622 208 3 0.41 4.07507 0.433937 0.148531
623 208 3 0.41 2.56752 -0.121584 0.472176
624 208 5 -0.82 3.44443 -0.347988 -0.0603041
625 209 3 0.41 9.2894 3.68329 -16.9738
626 209 3 0.41 10.2132 2.27399 -17.2217
627 209 5 -0.82 9.7567 3.0943 -17.6746
628 210 3 0.41 -0.080513 9.34782 10.4606
629 210 3 0.41 -0.0324013 10.8366 10.6681
630 210 5 -0.82 -0.643804 10.1107 10.3349
631 211 3 0.41 6.91867 4.25484 18.5696
632 211 3 0.41 8.22438 3.30669 18.3948
633 211 5 -0.82 7.57821 3.92884 17.8829
634 212 3 0.41 3.24432 0.533917 22.3732
635 212 3 0.41 2.98579 2.04662 22.0885
636 212 5 -0.82 3.60772 1.28928 21.8485
637 213 3 0.41 2.92923 11.709 -0.122815
638 213 3 0.41 1.77938 11.0195 -0.83099
639 213 5 -0.82 2.74205 10.8707 -0.616267
640 214 3 0.41 12.3863 -0.0446815 -3.52196
641 214 3 0.41 -1.37185 0.920205 -4.85612
642 214 5 -0.82 -0.964789 0.57789 -4.03369
643 215 3 0.41 7.53218 11.5621 -18.6556
644 215 3 0.41 8.13544 10.1746 -18.0314
645 215 5 -0.82 7.8828 10.6496 -18.8975
646 216 3 0.41 4.96244 6.73189 9.48001
647 216 3 0.41 3.57162 7.16312 8.64548
648 216 5 -0.82 4.04145 6.47366 9.25477
649 217 3 0.41 7.62307 1.90203 -19.6737
650 217 3 0.41 8.66628 2.40284 -18.5711
651 217 5 -0.82 7.93956 1.69966 -18.7707
652 218 3 0.41 10.3684 0.948807 6.85205
653 218 3 0.41 11.8036 0.344889 6.46572
654 218 5 -0.82 10.7961 0.150978 6.454
655 219 3 0.41 4.81797 9.78408 -13.2671
656 219 3 0.41 5.54561 10.9543 -12.3877
657 219 5 -0.82 5.65768 10.0632 -12.8041
658 220 3 0.41 0.0752864 4.15472 15.5475
659 220 3 0.41 -0.649479 5.59176 15.8589
660 220 5 -0.82 0.189254 5.00148 16.0546
661 221 3 0.41 3.26894 6.74654 -22.2186
662 221 3 0.41 3.82757 8.16001 -21.7072
663 221 5 -0.82 4.11196 7.27233 -22.0457
664 222 3 0.41 5.40792 3.05714 -22.0178
665 222 3 0.41 4.7721 1.70391 -21.2286
666 222 5 -0.82 5.35341 2.02472 -22.0337
667 223 3 0.41 3.4684 6.37882 -8.92972
668 223 3 0.41 3.65665 4.79452 -8.38872
669 223 5 -0.82 4.11967 5.5905 -8.79572
670 224 3 0.41 9.56777 6.72514 2.99314
671 224 3 0.41 10.8593 7.16687 3.83196
672 224 5 -0.82 10.0596 7.59506 3.37832
673 225 3 0.41 9.46039 -0.118981 2.41289
674 225 3 0.41 8.27977 0.228571 1.42369
675 225 5 -0.82 9.28872 0.0493545 1.41856
676 226 3 0.41 10.0254 4.10883 18.5804
677 226 3 0.41 9.15786 5.47368 18.805
678 226 5 -0.82 10.1052 5.183 18.5971
679 227 3 0.41 8.07035 6.07523 20.8298
680 227 3 0.41 6.83601 5.20716 21.2512
681 227 5 -0.82 7.50351 5.28721 20.5585
682 228 3 0.41 5.29417 1.21544 -10.581
683 228 3 0.41 5.77066 2.66543 -10.8332
684 228 5 -0.82 5.58822 1.77423 -11.3531
685 229 3 0.41 6.9864 7.98994 -21.7235
686 229 3 0.41 5.85203 6.86633 -21.9181
687 229 5 -0.82 6.85489 6.999 -21.9901
688 230 3 0.41 7.08037 2.24838 2.53017
689 230 3 0.41 7.35656 2.64256 4.10289
690 230 5 -0.82 7.46493 2.98709 3.13049
691 231 3 0.41 3.75975 -1.3047 -12.5701
692 231 3 0.41 2.86696 -1.34691 -13.8929
693 231 5 -0.82 3.80042 12.3785 -13.5666
694 232 3 0.41 9.75151 1.54059 -2.85883
695 232 3 0.41 8.92905 1.2389 -1.53019
696 232 5 -0.82 9.90393 1.32753 -1.90075
697 233 3 0.41 1.11631 11.4837 1.92918
698 233 3 0.41 2.08668 10.3163 2.26723
699 233 5 -0.82 2.06272 11.3488 2.27793
700 234 3 0.41 5.73784 4.81227 11.7967
701 234 3 0.41 6.31489 5.1185 10.3475
702 234 5 -0.82 5.80448 4.44517 10.8659
703 235 3 0.41 6.01161 1.69052 7.881
704 235 3 0.41 5.24954 3.05387 8.05888
705 235 5 -0.82 5.83172 2.41246 8.55299
706 236 3 0.41 -0.76765 8.50164 0.201261
707 236 3 0.41 -0.279545 9.91482 0.63647
708 236 5 -0.82 -0.28793 9.30875 -0.201258
709 237 3 0.41 3.27181 1.93963 9.05853
710 237 3 0.41 4.2671 2.58897 10.0802
711 237 5 -0.82 3.30614 2.65519 9.8264
712 238 3 0.41 -0.0125326 8.44377 14.1197
713 238 3 0.41 0.0426713 9.4779 12.9752
714 238 5 -0.82 0.310544 8.50732 13.1883
715 239 3 0.41 11.742 8.98255 -1.69621
716 239 3 0.41 11.0042 7.5105 -1.7862
717 239 5 -0.82 11.7314 8.11535 -2.20117
718 240 3 0.41 1.11563 9.10078 -16.2568
719 240 3 0.41 -0.00715962 8.90604 -17.3932
720 240 5 -0.82 0.319808 8.56593 -16.526
721 241 3 0.41 11.6818 -0.31244 1.5245
722 241 3 0.41 -1.07597 -0.207245 0.61529
723 241 5 -0.82 12.3961 0.352182 1.24013
724 242 3 0.41 4.65191 6.68273 -0.115283
725 242 3 0.41 4.17399 6.76826 -1.63854
726 242 5 -0.82 4.64129 6.15684 -0.997355
727 243 3 0.41 2.20587 3.73238 -19.3808
728 243 3 0.41 3.6574 3.36712 -19.9283
729 243 5 -0.82 2.72028 3.62175 -20.2516
730 244 3 0.41 -1.13834 5.53899 19.9291
731 244 3 0.41 0.19658 4.72875 20.1158
732 244 5 -0.82 -0.581598 4.75561 19.5632
733 245 3 0.41 6.93694 0.614685 -22.1038
734 245 3 0.41 7.94162 -0.748191 -22.1015
735 245 5 -0.82 6.95592 -0.426327 -21.9439
736 246 3 0.41 8.03657 3.98205 12.9251
737 246 3 0.41 8.69012 2.58547 12.5952
738 246 5 -0.82 7.85183 3.10345 12.5616
739 247 3 0.41 5.23222 6.72221 22.3996
740 247 3 0.41 6.65132 7.2686 23.1118
741 247 5 -0.82 6.07968 7.28587 22.2502
742 248 3 0.41 -1.45223 3.77771 10.3871
743 248 3 0.41 -0.46944 2.95286 11.3257
744 248 5 -0.82 -0.469174 3.62102 10.5514
745 249 3 0.41 0.45776 4.0762 -15.2859
746 249 3 0.41 0.309165 2.84602 -14.4647
747 249 5 -0.82 0.734748 3.11515 -15.3402
748 250 3 0.41 4.55331 4.26214 19.3613
749 250 3 0.41 5.26241 3.58267 20.669
750 250 5 -0.82 5.06765 3.49257 19.6325
751 251 3 0.41 9.10554 1.2128 22.1298
752 251 3 0.41 10.5666 1.5308 21.738
753 251 5 -0.82 9.94927 0.68932 21.894