ITEM: TIMESTEP
40000
ITEM: NUMBER OF ATOMS
1360
ITEM: BOX BOUNDS pp pp pp
-1.5000000000000000e+00 1.2500000000000000e+01
-1.5000000000000000e+00 1.2500000000000000e+01
-2.7500000000000000e+01 2.7500000000000000e+01
ITEM: ATOMS id mol type q x y z
1 1 3 0.41 1.8044 0.733198 6.4662
2 1 3 0.41 1.65924 -0.517269 7.38758
3 1 5 -0.82 2.12086 -0.22167 6.51951
4 2 3 0.41 5.03146 8.77358 -6.64563
5 2 3 0.41 4.35466 10.2275 -6.76326
6 2 5 -0.82 5.26445 9.74504 -6.67711
7 3 3 0.41 8.96627 0.295438 11.2046
8 3 3 0.41 10.0551 -0.17586 10.1616
9 3 5 -0.82 9.34063 -0.563038 10.7674
10 4 3 0.41 5.03379 12.2724 -16.5749
11 4 3 0.41 6.25567 11.1812 -16.6786
12 4 5 -0.82 5.51684 11.4445 -16.0775
13 5 3 0.41 1.69931 7.04731 -11.1
14 5 3 0.41 3.28055 7.25927 -11.5241
15 5 5 -0.82 2.45559 7.72632 -11.1455
16 6 3 0.41 0.542587 4.22699 -17.6351
17 6 3 0.41 1.39434 3.33142 -16.4667
18 6 5 -0.82 0.643768 3.31408 -17.1939
19 7 3 0.41 3.82347 6.3256 -22.2365
20 7 3 0.41 3.15301 7.09099 -20.9346
21 7 5 -0.82 3.2199 7.11632 -21.9379
22 8 3 0.41 11.1429 3.66077 18.0195
23 8 3 0.41 10.1069 4.66503 17.3758
24 8 5 -0.82 10.741 3.95405 17.1376
25 9 3 0.41 11.3647 -0.488861 -11.9941
26 9 3 0.41 12.4697 -1.09581 -10.9375
27 9 5 -0.82 12.3202 -0.727085 -11.8563
28 10 3 0.41 2.11435 -0.628721 -1.03457
29 10 3 0.41 3.30569 12.2929 -1.48874
30 10 5 -0.82 2.54205 12.4596 -0.879074
31 11 3 0.41 -1.04991 11.1884 -5.73713
32 11 3 0.41 -0.560225 11.7607 -7.12081
33 11 5 -0.82 -1.09834 12.0122 -6.29607
34 12 3 0.41 11.4115 11.3615 -16.4345
35 12 3 0.41 12.1906 11.6651 -15.0944
36 12 5 -0.82 11.9627 12.0997 -16.0032
37 13 3 0.41 10.8658 8.97234 13.3299
38 13 3 0.41 12.3539 9.5508 13.4537
39 13 5 -0.82 11.4291 9.77421 13.2085
40 14 3 0.41 9.60342 12.1768 -11.8945
41 14 3 0.41 8.21271 -1.16681 -12.4697
42 14 5 -0.82 9.04342 -0.972581 -11.8796
43 15 3 0.41 2.00212 0.893561 14.415
44 15 3 0.41 2.74096 0.48693 13.1227
45 15 5 -0.82 1.89802 0.230428 13.6292
46 16 3 0.41 7.47318 0.448849 19.1315
47 16 3 0.41 6.29611 -0.533998 18.7236
48 16 5 -0.82 7.19966 -0.183468 18.3857
49 17 3 0.41 6.25608 4.31837 19.1887
50 17 3 0.41 5.7676 5.81123 19.0647
51 17 5 -0.82 5.44593 4.87338 19.0729
52 18 3 0.41 0.349524 9.67906 -14.1182
53 18 3 0.41 -0.117463 9.95806 -15.505
54 18 5 -0.82 0.555014 10.3379 -14.8307
55 19 3 0.41 3.40958 7.09 5.57309
56 19 3 0.41 4.26658 8.31353 6.12387
57 19 5 -0.82 3.41562 7.8257 6.26257
58 20 3 0.41 6.84201 5.18339 -4.43621
59 20 3 0.41 5.92382 5.70337 -5.68243
60 20 5 -0.82 6.62217 5.03158 -5.43795
61 21 3 0.41 8.66962 4.00219 22.8816
62 21 3 0.41 9.63641 2.72951 22.3812
63 21 5 -0.82 9.04212 3.47566 22.0995
64 22 3 0.41 6.25389 4.82902 -14.1909
65 22 3 0.41 6.26054 4.6883 -12.6055
66 22 5 -0.82 6.87376 4.88767 -13.388
67 23 3 0.41 9.99794 3.48369 -19.5301
68 23 3 0.41 10.1438 4.40961 -18.2894
69 23 5 -0.82 9.74298 4.41864 -19.2303
70 24 3 0.41 1.76031 8.13802 -13.8251
71 24 3 0.41 3.30873 8.39676 -14.0661
72 24 5 -0.82 2.50347 7.94526 -14.4698
73 25 3 0.41 3.32131 2.30614 -14.871
74 25 3 0.41 1.81835 2.01737 -14.7881
75 25 5 -0.82 2.48131 2.40103 -15.4397
76 26 3 0.41 1.63064 11.6454 -11.5749
77 26 3 0.41 1.04421 -1.08233 -10.911
78 26 5 -0.82 0.882533 11.9521 -10.9846
79 27 3 0.41 5.11944 1.20156 -15.3563
80 27 3 0.41 4.05457 0.0542331 -15.5795
81 27 5 -0.82 4.75198 0.619759 -16.0676
82 28 3 0.41 11.3124 9.20387 -9.68618
83 28 3 0.41 10.4391 7.92966 -9.71405
84 28 5 -0.82 10.7902 8.66369 -10.3352
85 29 3 0.41 -1.08588 0.803641 18.604
86 29 3 0.41 12.4667 -0.617182 19.217
87 29 5 -0.82 -1.26063 0.317386 19.5204
88 30 3 0.41 7.74111 0.570974 8.71188
89 30 3 0.41 6.60004 0.0965289 9.70758
90 30 5 -0.82 6.98962 0.952248 9.2822
91 31 3 0.41 -0.681971 11.652 -16.8711
92 31 3 0.41 -0.214644 12.1958 -18.2003
93 31 5 -0.82 0.0492493 11.5005 -17.5522
94 32 3 0.41 0.994423 4.44333 -21.656
95 32 3 0.41 1.92799 5.70997 -21.844
96 32 5 -0.82 1.95919 4.69279 -21.8158
97 33 3 0.41 7.30264 -0.0434008 -2.84572
98 33 3 0.41 8.6937 0.192247 -3.66537
99 33 5 -0.82 7.75314 -0.144357 -3.75962
100 34 3 0.41 9.72631 -1.15269 2.76479
101 34 3 0.41 10.6603 11.7568 2.35621
102 34 5 -0.82 9.75167 12.1251 2.01725
103 35 3 0.41 8.6515 6.98345 11.2489
104 35 3 0.41 8.25828 8.37511 11.911
105 35 5 -0.82 8.96316 7.959 11.2856
106 36 3 0.41 7.47879 8.73274 -1.26699
107 36 3 0.41 6.40012 7.69366 -1.89773
108 36 5 -0.82 7.12101 7.78396 -1.17217
109 37 3 0.41 0.0819585 10.2524 23.0267
110 37 3 0.41 -0.646078 9.63297 21.8338
111 37 5 -0.82 -0.151054 10.5058 22.067
112 38 3 0.41 2.40343 3.76072 0.938087
113 38 3 0.41 2.36072 2.49159 1.95813
114 38 5 -0.82 3.00287 3.0541 1.38412
115 39 3 0.41 10.5945 7.05442 -14.3402
116 39 3 0.41 10.3423 8.53028 -13.9177
117 39 5 -0.82 11.0842 7.81859 -13.8844
118 40 3 0.41 11.4956 10.8894 -19.5249
119 40 3 0.41 11.6723 12.4655 -19.2035
120 40 5 -0.82 10.9961 11.7809 -19.4819
121 41 3 0.41 4.73124 5.2605 -16.2404
122 41 3 0.41 5.42494 3.83105 -16.0056
123 41 5 -0.82 5.12166 4.63351 -15.4996
124 42 3 0.41 0.0443058 -0.83365 4.28042
125 42 3 0.41 -1.30576 -0.626159 5.25391
126 42 5 -0.82 -0.552173 -1.22484 5.0298
127 43 3 0.41 1.1832 4.64092 17.7818
128 43 3 0.41 0.206 4.12085 16.5562
129 43 5 -0.82 0.303867 4.19785 17.5796
130 44 3 0.41 7.88088 9.68446 -18.8568
131 44 3 0.41 6.75814 8.84822 -18.3187
132 44 5 -0.82 7.1727 9.74474 -18.1443
133 45 3 0.41 8.03045 8.40424 1.59174
134 45 3 0.41 7.90396 7.40589 0.526016
135 45 5 -0.82 7.97878 7.37925 1.54615
136 46 3 0.41 10.8185 2.688 13.5625
137 46 3 0.41 10.7698 1.86936 12.1303
138 46 5 -0.82 11.3714 2.11785 12.9259
139 47 3 0.41 6.77208 2.90603 0.411645
140 47 3 0.41 7.07811 2.38778 1.96908
141 47 5 -0.82 6.79221 2.09599 1.03872
142 48 3 0.41 0.521946 3.20749 18.8934
143 48 3 0.41 1.75948 2.71058 19.6565
144 48 5 -0.82 0.774754 2.49487 19.5773
145 49 3 0.41 8.13211 -0.158636 -7.25333
146 49 3 0.41 8.76351 12.3874 -6.81763
147 49 5 -0.82 8.28673 -1.10688 -7.58506
148 50 3 0.41 11.7022 -1.33628 21.2661
149 50 3 0.41 11.8573 11.9098 22.6966
150 50 5 -0.82 11.2707 -1.48814 22.1575
151 51 3 0.41 12.4551 -1.29557 10.497
152 51 3 0.41 -0.723643 11.3311 10.6801
153 51 5 -0.82 12.4482 11.6902 10.3251
154 52 3 0.41 2.05231 5.07293 -13.1201
155 52 3 0.41 0.650785 5.17023 -12.543
156 52 5 -0.82 1.50565 4.64796 -12.4149
157 53 3 0.41 11.648 6.24315 5.65251
158 53 3 0.41 -1.44576 6.68567 6.95333
159 53 5 -0.82 11.6132 6.52796 6.60305
160 54 3 0.41 7.38639 1.51559 14.5733
161 54 3 0.41 6.0915 1.88546 13.6442
162 54 5 -0.82 7.12231 1.98792 13.7125
163 55 3 0.41 -0.496123 6.40974 13.3947
164 55 3 0.41 0.328041 7.71086 13.1004
165 55 5 -0.82 -0.604421 7.41734 13.2217
166 56 3 0.41 0.779769 7.60551 7.8615
167 56 3 0.41 0.980044 6.05829 8.11438
168 56 5 -0.82 0.309525 6.66382 7.76272
169 57 3 0.41 5.75512 -0.108605 -17.0049
170 57 3 0.41 6.84993 0.413282 -18.1503
171 57 5 -0.82 6.30917 -0.394883 -17.8414
172 58 3 0.41 2.9851 9.99339 -20.8657
173 58 3 0.41 3.36942 8.91796 -21.9911
174 58 5 -0.82 3.39943 9.93643 -21.7857
175 59 3 0.41 10.6092 11.0921 7.84034
176 59 3 0.41 11.6879 11.8015 8.92567
177 59 5 -0.82 11.2883 11.8563 7.97949
178 60 3 0.41 11.6346 8.74152 1.29343
179 60 3 0.41 10.3802 8.96339 2.13224
180 60 5 -0.82 10.6473 8.73297 1.20123
181 61 3 0.41 0.858874 2.34566 15.3527
182 61 3 0.41 2.02065 3.09716 14.7786
183 61 5 -0.82 1.89666 2.31083 15.4008
184 62 3 0.41 -0.526022 8.50556 5.22421
185 62 3 0.41 0.949999 8.07188 4.67518
186 62 5 -0.82 0.0793925 7.69825 5.01369
187 63 3 0.41 -0.0464417 6.56831 17.2046
188 63 3 0.41 1.12838 7.73512 16.9773
189 63 5 -0.82 0.736283 6.89048 16.6086
190 64 3 0.41 7.4512 12.4557 5.10877
191 64 3 0.41 8.2578 11.0528 5.27608
192 64 5 -0.82 7.31078 11.4404 5.25018
193 65 3 0.41 0.943002 3.36691 -2.12244
194 65 3 0.41 2.41454 2.86734 -2.44431
195 65 5 -0.82 1.48528 2.91433 -2.85768
196 66 3 0.41 -0.275843 1.28232 4.74825
197 66 3 0.41 -0.350695 2.62545 3.69237
198 66 5 -0.82 -0.801421 2.09199 4.52871
199 67 3 0.41 5.5948 1.53754 9.91338
200 67 3 0.41 5.13973 2.47971 10.9545
201 67 5 -0.82 4.82417 1.61458 10.5629
202 68 3 0.41 3.97427 9.85415 19.5796
203 68 3 0.41 5.35355 10.5002 18.8581
204 68 5 -0.82 4.37131 10.2719 18.7222
205 69 3 0.41 0.719799 2.44984 -21.2545
206 69 3 0.41 -0.748308 1.945 -21.7497
207 69 5 -0.82 -0.139519 2.74254 -21.7222
208 70 3 0.41 9.10166 5.96459 -19.4794
209 70 3 0.41 9.18673 7.53445 -19.7587
210 70 5 -0.82 8.52222 6.81332 -19.548
211 71 3 0.41 -0.778583 6.53026 3.99209
212 71 3 0.41 11.6404 6.19988 3.69423
213 71 5 -0.82 -1.44089 5.78908 3.8382
214 72 3 0.41 1.26327 9.8262 15.8276
215 72 3 0.41 0.0222145 8.94944 15.5095
216 72 5 -0.82 0.810697 9.34849 15.0583
217 73 3 0.41 -0.633805 3.0502 -10.8155
218 73 3 0.41 0.474738 2.9472 -12.0179
219 73 5 -0.82 -0.482829 2.80662 -11.8074
220 74 3 0.41 7.91796 0.5802 -1.16021
221 74 3 0.41 6.85048 1.19476 -0.241752
222 74 5 -0.82 6.91145 0.536113 -1.02667
223 75 3 0.41 10.6791 0.923429 -6.29919
224 75 3 0.41 11.0358 2.53052 -6.82736
225 75 5 -0.82 10.4313 1.72514 -6.94439
226 76 3 0.41 4.44554 -1.10338 -11.2914
227 76 3 0.41 4.25146 0.381771 -12.0527
228 76 5 -0.82 4.37243 -0.598493 -12.1677
229 77 3 0.41 10.2239 -0.848578 16.1212
230 77 3 0.41 10.4896 0.700134 16.2416
231 77 5 -0.82 10.8522 -0.174417 16.5886
232 78 3 0.41 0.151568 10.5453 -11.2396
233 78 3 0.41 -0.864083 9.72553 -10.4523
234 78 5 -0.82 -0.519707 9.78815 -11.3864
235 79 3 0.41 8.59551 11.0301 2.35154
236 79 3 0.41 8.39593 9.84265 3.48156
237 79 5 -0.82 8.23787 10.0772 2.49588
238 80 3 0.41 2.94076 6.19753 -14.9214
239 80 3 0.41 3.56369 4.79676 -14.8363
240 80 5 -0.82 2.66066 5.27216 -14.6947
241 81 3 0.41 -0.2056 12.0627 -2.44536
242 81 3 0.41 12.4583 -1.3051 -2.98354
243 81 5 -0.82 -0.566064 -1.08378 -2.83362
244 82 3 0.41 0.572301 7.17935 -2.393
245 82 3 0.41 1.00205 8.58385 -1.76066
246 82 5 -0.82 1.31771 7.87172 -2.41198
247 83 3 0.41 12.3601 10.9526 4.27602
248 83 3 0.41 -1.23692 11.8079 3.02164
249 83 5 -0.82 12.018 11.1637 3.3352
250 84 3 0.41 0.0137305 1.68205 1.64051
251 84 3 0.41 -1.1661 2.65857 1.11011
252 84 5 -0.82 -0.70461 1.78334 0.913311
253 85 3 0.41 5.19184 -1.37882 20.9723
254 85 3 0.41 5.08413 12.2882 22.4737
255 85 5 -0.82 5.80631 12.397 21.7678
256 86 3 0.41 12.4066 8.64008 -19.6239
257 86 3 0.41 -0.785153 9.21073 -18.1692
258 86 5 -0.82 -0.952445 9.28712 -19.1773
259 87 3 0.41 4.72638 0.367714 4.74704
260 87 3 0.41 4.32058 1.98692 4.45565
261 87 5 -0.82 5.11188 1.26433 4.42433
262 88 3 0.41 8.77641 12.0892 14.1887
263 88 3 0.41 9.65704 10.6999 14.0568
264 88 5 -0.82 8.76163 11.0614 14.2836
265 89 3 0.41 8.54764 4.24706 -22.0218
266 89 3 0.41 7.28734 3.99572 -21.2423
267 89 5 -0.82 7.83571 3.51472 -21.9262
268 90 3 0.41 10.0236 2.67737 -12.2691
269 90 3 0.41 11.6521 2.78352 -11.619
270 90 5 -0.82 10.7266 3.18962 -11.7027
271 91 3 0.41 10.0288 -0.417237 7.8787
272 91 3 0.41 9.22336 -0.23862 6.54593
273 91 5 -0.82 9.06737 -0.177638 7.55977
274 92 3 0.41 5.75964 3.71348 3.26658
275 92 3 0.41 4.39294 3.58559 2.24483
276 92 5 -0.82 5.0119 4.22552 2.79757
277 93 3 0.41 6.5877 7.55134 9.37324
278 93 3 0.41 6.82242 8.40703 8.06856
279 93 5 -0.82 6.95373 8.463 9.10986
280 94 3 0.41 9.89409 3.22351 6.48919
281 94 3 0.41 9.38474 4.37371 5.46472
282 94 5 -0.82 10.1834 3.7275 5.66997
283 95 3 0.41 6.64787 4.58187 11.8741
284 95 3 0.41 5.26185 4.20021 12.4037
285 95 5 -0.82 5.73743 4.31375 11.5498
286 96 3 0.41 1.57657 0.498296 10.4693
287 96 3 0.41 2.92404 1.3588 10.1917
288 96 5 -0.82 2.29193 0.68608 9.73085
289 97 3 0.41 6.10536 4.95556 17.5573
290 97 3 0.41 7.66829 4.72772 17.6753
291 97 5 -0.82 6.96916 5.00747 17.0342
292 98 3 0.41 10.4956 -0.717583 -17.5514
293 98 3 0.41 9.31722 0.0137514 -16.776
294 98 5 -0.82 9.86581 0.00846852 -17.6191
295 99 3 0.41 11.2531 10.9946 0.54285
296 99 3 0.41 -1.21902 11.2084 0.968233
297 99 5 -0.82 12.1744 11.077 0.157406
298 100 3 0.41 3.07602 12.0195 0.838098
299 100 3 0.41 4.12134 11.4891 2.00714
300 100 5 -0.82 3.20147 11.2973 1.55744
301 101 3 0.41 7.32682 7.64174 -6.20801
302 101 3 0.41 7.72231 8.38058 -7.58475
303 101 5 -0.82 7.49672 7.48139 -7.19493
304 102 3 0.41 7.1371 -0.819557 -20.1891
305 102 3 0.41 5.73457 -0.676129 -20.0539
306 102 5 -0.82 6.38471 -0.54278 -20.8107
307 103 3 0.41 8.33231 3.70106 14.0933
308 103 3 0.41 7.3232 4.25543 15.2334
309 103 5 -0.82 7.81466 4.50173 14.3941
310 104 3 0.41 -0.386675 8.66355 -12.419
311 104 3 0.41 -1.21506 7.91793 -13.4194
312 104 5 -0.82 -0.24294 8.12218 -13.2969
313 105 3 0.41 10.2667 0.0725176 4.83106
314 105 3 0.41 8.71705 0.130289 4.45472
315 105 5 -0.82 9.41254 -0.503251 4.82996
316 106 3 0.41 2.21943 8.94808 -6.98364
317 106 3 0.41 2.10014 8.25144 -5.60943
318 106 5 -0.82 1.7086 9.00733 -6.12841
319 107 3 0.41 1.48186 9.58412 -8.79867
320 107 3 0.41 2.16075 8.61403 -9.74085
321 107 5 -0.82 2.31936 8.97473 -8.79881
322 108 3 0.41 1.01469 10.7598 -18.9734
323 108 3 0.41 2.16868 11.6245 -19.7176
324 108 5 -0.82 1.58635 10.7936 -19.8247
325 109 3 0.41 7.86212 12.3274 -18.4668
326 109 3 0.41 9.35147 12.3531 -19.1265
327 109 5 -0.82 8.38358 12.4037 -19.3624
328 110 3 0.41 9.8541 3.60519 -3.73862
329 110 3 0.41 9.79443 3.66533 -5.36602
330 110 5 -0.82 9.77492 3.02498 -4.57935
331 111 3 0.41 1.08272 6.02919 -15.029
332 111 3 0.41 -0.345479 6.17386 -14.1137
333 111 5 -0.82 0.0775007 5.97177 -15.0248
334 112 3 0.41 10.3835 4.36712 -21.9496
335 112 3 0.41 11.9549 3.87765 -22.0185
336 112 5 -0.82 10.9737 3.51851 -21.9838
337 113 3 0.41 5.38352 -1.16695 15.732
338 113 3 0.41 5.37606 11.2908 15.3266
339 113 5 -0.82 5.99949 12.0015 15.7285
340 114 3 0.41 5.21892 7.02849 -13.1209
341 114 3 0.41 4.81086 5.98987 -11.8079
342 114 5 -0.82 4.50127 6.65437 -12.5041
343 115 3 0.41 4.93305 -0.903907 7.32708
344 115 3 0.41 6.26857 0.148499 7.03529
345 115 5 -0.82 5.62226 -0.51634 6.66893
346 116 3 0.41 1.95099 7.72659 19.3748
347 116 3 0.41 3.04233 7.42695 20.5605
348 116 5 -0.82 2.94415 7.77665 19.6136
349 117 3 0.41 8.16246 2.44348 -12.7605
350 117 3 0.41 8.19027 2.97784 -14.2279
351 117 5 -0.82 8.79039 2.47823 -13.5536
352 118 3 0.41 2.92878 8.67065 -2.29431
353 118 3 0.41 3.96277 9.76406 -1.6097
354 118 5 -0.82 3.29524 9.64479 -2.31174
355 119 3 0.41 2.52232 3.32697 -5.1122
356 119 3 0.41 1.20269 3.43029 -6.0132
357 119 5 -0.82 2.18492 3.07318 -6.02487
358 120 3 0.41 3.26978 -0.440561 9.04036
359 120 3 0.41 4.71271 -1.08688 9.77528
360 120 5 -0.82 4.09386 -1.09941 8.93893
361 121 3 0.41 11.4785 6.38993 -18.3011
362 121 3 0.41 11.5679 6.56959 -19.7493
363 121 5 -0.82 11.2407 7.07559 -18.9681
364 122 3 0.41 0.468109 7.16859 10.4139
365 122 3 0.41 -0.602263 6.10761 10.1494
366 122 5 -0.82 0.357504 6.13813 10.3633
367 123 3 0.41 9.56485 1.7381 2.17387
368 123 3 0.41 9.33295 1.12808 0.567531
369 123 5 -0.82 9.34586 0.928855 1.5965
370 124 3 0.41 12.0884 5.75809 -6.85869
371 124 3 0.41 12.468 7.22876 -6.2227
372 124 5 -0.82 12.0049 6.76226 -7.00119
373 125 3 0.41 -0.254788 0.668202 -8.32304
374 125 3 0.41 -1.04019 -0.316781 -7.36768
375 125 5 -0.82 -0.256569 0.348349 -7.38679
376 126 3 0.41 0.690982 0.322925 -13.9215
377 126 3 0.41 -0.157168 1.67921 -13.4001
378 126 5 -0.82 0.789279 1.27527 -13.6559
379 127 3 0.41 3.46207 -0.975583 15.6493
380 127 3 0.41 2.02251 -0.941754 14.9058
381 127 5 -0.82 2.54751 -1.493 15.5181
382 128 3 0.41 8.63499 5.82984 6.25889
383 128 3 0.41 7.26018 5.37817 5.46081
384 128 5 -0.82 8.30524 5.51576 5.34656
385 129 3 0.41 -0.28727 9.28587 2.18075
386 129 3 0.41 0.123157 8.30366 1.08057
387 129 5 -0.82 -0.64278 8.46572 1.71207
388 130 3 0.41 -1.02999 4.14146 -4.59215
389 130 3 0.41 -1.43949 3.51907 -3.17552
390 130 5 -0.82 -1.39453 4.3916 -3.68718
391 131 3 0.41 0.261715 0.959817 -10.615
392 131 3 0.41 1.1402 0.910886 -11.9312
393 131 5 -0.82 1.20379 0.716649 -10.9235
394 132 3 0.41 8.42733 8.73707 -3.93445
395 132 3 0.41 7.78563 7.4132 -4.27295
396 132 5 -0.82 7.84048 8.35587 -4.64257
397 133 3 0.41 6.0986 4.39478 6.5602
398 133 3 0.41 4.82339 5.28661 6.13956
399 133 5 -0.82 5.7806 5.25137 6.05617
400 134 3 0.41 -1.34779 2.44715 -1.04646
401 134 3 0.41 11.8773 1.51311 -2.08248
402 134 5 -0.82 -1.29741 2.09283 -2.01743
403 135 3 0.41 9.59792 1.19955 -21.1012
404 135 3 0.41 8.60732 1.91257 -22.1591
405 135 5 -0.82 9.13501 1.06233 -22.0144
406 136 3 0.41 -0.828734 2.65123 12.1662
407 136 3 0.41 -0.684519 1.56187 11.017
408 136 5 -0.82 -0.162348 2.15842 11.6387
409 137 3 0.41 6.66524 12.2149 2.32805
410 137 3 0.41 6.54053 10.668 2.60663
411 137 5 -0.82 6.01434 11.4696 2.23005
412 138 3 0.41 12.0376 11.455 14.5596
413 138 3 0.41 11.544 10.7092 15.9617
414 138 5 -0.82 12.2845 11.3155 15.513
415 139 3 0.41 9.53243 10.7073 22.0137
416 139 3 0.41 9.72549 9.53903 23.0838
417 139 5 -0.82 10.0355 9.80782 22.1677
418 140 3 0.41 3.85108 2.147 -0.226119
419 140 3 0.41 4.58102 1.24742 -1.3176
420 140 5 -0.82 3.99874 2.08613 -1.21784
421 141 3 0.41 6.95805 2.71818 -19.3281
422 141 3 0.41 8.27527 1.79708 -19.3338
423 141 5 -0.82 7.29785 1.8527 -18.9857
424 142 3 0.41 -0.202405 9.8975 -8.17238
425 142 3 0.41 -1.1554 8.5057 -8.04856
426 142 5 -0.82 -0.905691 9.27064 -8.6518
427 143 3 0.41 3.02287 10.8886 12.9422
428 143 3 0.41 3.41144 12.4153 12.2515
429 143 5 -0.82 2.8361 11.5955 12.2197
430 144 3 0.41 2.59222 3.44318 -12.168
431 144 3 0.41 2.78965 1.97332 -11.4743
432 144 5 -0.82 3.22447 2.62198 -12.0993
433 145 3 0.41 11.8234 -1.09924 -5.55439
434 145 3 0.41 10.2048 -0.903826 -5.59869
435 145 5 -0.82 11.076 -0.368312 -5.50086
436 146 3 0.41 2.17145 2.4582 -7.50362
437 146 3 0.41 2.04081 2.62337 -9.07723
438 146 5 -0.82 2.50179 2.04949 -8.38832
439 147 3 0.41 9.61261 4.35099 -7.56242
440 147 3 0.41 9.8019 2.87655 -8.19124
441 147 5 -0.82 9.83926 3.86929 -8.46126
442 148 3 0.41 1.79556 12.3364 19.4018
443 148 3 0.41 1.80499 -0.16061 18.6253
444 148 5 -0.82 1.97058 -0.633946 19.5305
445 149 3 0.41 10.2307 5.28097 -1.70906
446 149 3 0.41 10.3024 5.25634 -3.37165
447 149 5 -0.82 10.0423 4.69408 -2.50511
448 150 3 0.41 3.8244 11.6223 -9.04478
449 150 3 0.41 3.73564 10.0328 -8.93126
450 150 5 -0.82 4.34341 10.7551 -9.26225
451 151 3 0.41 1.14574 9.32028 10.3182
452 151 3 0.41 1.29035 8.40529 11.6913
453 151 5 -0.82 0.602523 8.78545 11.0067
454 152 3 0.41 5.25381 9.21574 3.99012
455 152 3 0.41 6.01136 9.26031 5.37972
456 152 5 -0.82 5.24654 9.68536 4.86096
457 153 3 0.41 9.56146 7.99212 8.142
458 153 3 0.41 10.9164 8.71448 8.58416
459 153 5 -0.82 9.93166 8.88512 8.46629
460 154 3 0.41 -0.763575 2.86026 -18.6193
461 154 3 0.41 -1.31799 3.44201 -20.1152
462 154 5 -0.82 12.442 2.93478 -19.2833
463 155 3 0.41 4.14153 1.9653 20.1922
464 155 3 0.41 3.706 3.361 19.6449
465 155 5 -0.82 3.70555 2.37521 19.3785
466 156 3 0.41 1.01901 6.41603 -17.9399
467 156 3 0.41 0.0833269 6.10565 -19.3103
468 156 5 -0.82 0.616179 5.66512 -18.5252
469 157 3 0.41 0.447859 1.35674 17.3437
470 157 3 0.41 -0.705611 1.89813 16.2875
471 157 5 -0.82 -0.477771 1.11672 16.9443
472 158 3 0.41 6.62333 12.2693 -10.4551
473 158 3 0.41 7.5511 -0.964809 -9.30454
474 158 5 -0.82 6.70626 -0.864262 -9.89307
475 159 3 0.41 3.48681 10.4591 -12.9879
476 159 3 0.41 1.98634 10.6997 -13.5432
477 159 5 -0.82 2.55548 10.6279 -12.6845
478 160 3 0.41 10.8683 2.84018 20.3326
479 160 3 0.41 12.2744 2.44571 19.7691
480 160 5 -0.82 11.6536 3.21424 19.7589
481 161 3 0.41 11.0299 2.05422 -16.5116
482 161 3 0.41 9.6613 2.76114 -16.6175
483 161 5 -0.82 10.636 2.95416 -16.6795
484 162 3 0.41 7.92515 11.5282 -2.05623
485 162 3 0.41 7.24121 10.7905 -3.3547
486 162 5 -0.82 8.12665 11.172 -3.00111
487 163 3 0.41 2.17809 -0.102152 -9.63419
488 163 3 0.41 3.63276 -0.340013 -8.89855
489 163 5 -0.82 2.88528 -0.832861 -9.39526
490 164 3 0.41 2.42358 10.407 -3.46585
491 164 3 0.41 1.71206 10.1033 -4.72647
492 164 5 -0.82 1.90112 10.9244 -4.18816
493 165 3 0.41 0.624902 10.8201 20.3821
494 165 3 0.41 2.13213 10.2417 20.214
495 165 5 -0.82 1.37981 10.6905 19.7042
496 166 3 0.41 10.8636 3.29314 2.82019
497 166 3 0.41 10.5229 2.93228 4.35206
498 166 5 -0.82 10.4601 2.55466 3.40847
499 167 3 0.41 6.06341 12.151 -14.5292
500 167 3 0.41 5.77068 -0.827424 -13.359
501 167 5 -0.82 6.48175 -1.08034 -14.0051
502 168 3 0.41 1.16841 11.7998 -8.99162
503 168 3 0.41 1.5139 11.1487 -7.58949
504 168 5 -0.82 0.701041 11.3006 -8.21335
505 169 3 0.41 11.1962 10.4691 6.20203
506 169 3 0.41 10.5365 11.7366 5.6784
507 169 5 -0.82 10.3067 10.7247 5.72877
508 170 3 0.41 9.44436 3.38812 8.83332
509 170 3 0.41 9.58802 1.79248 8.39101
510 170 5 -0.82 9.2319 2.66654 8.14918
511 171 3 0.41 7.30287 11.4056 7.84498
512 171 3 0.41 8.50956 12.3717 8.00229
513 171 5 -0.82 8.07549 11.5638 8.42565
514 172 3 0.41 9.77717 0.714979 18.429
515 172 3 0.41 10.0272 1.16746 20.0269
516 172 5 -0.82 9.6152 1.41985 19.1423
517 173 3 0.41 5.38311 2.69734 7.64238
518 173 3 0.41 6.8956 2.48277 8.13906
519 173 5 -0.82 6.29076 3.12265 7.60864
520 174 3 0.41 9.56917 10.8572 16.6459
521 174 3 0.41 10.2712 10.0256 17.8792
522 174 5 -0.82 10.3089 10.2317 16.8729
523 175 3 0.41 0.60002 4.41281 9.3272
524 175 3 0.41 0.525869 3.11812 10.3309
525 175 5 -0.82 0.949657 3.48315 9.47927
526 176 3 0.41 8.50281 5.02818 -6.00758
527 176 3 0.41 9.83257 5.66804 -5.44574
528 176 5 -0.82 9.47836 5.15174 -6.24542
529 177 3 0.41 -0.605752 3.53431 13.9947
530 177 3 0.41 -1.3524 2.1021 14.2912
531 177 5 -0.82 -0.666112 2.7497 14.6723
532 178 3 0.41 1.96651 -0.871621 -14.2662
533 178 3 0.41 3.54134 -0.68966 -13.6272
534 178 5 -0.82 2.89305 -0.487833 -14.4466
535 179 3 0.41 4.96294 -1.25876 -21.5961
536 179 3 0.41 4.03767 11.5711 -22.231
537 179 5 -0.82 4.17291 -1.42777 -22.1815
538 180 3 0.41 -1.2934 7.74757 -1.95822
539 180 3 0.41 -1.11572 9.4242 -2.0489
540 180 5 -0.82 12.2082 8.68635 -1.88803
541 181 3 0.41 5.39273 3.79349 -6.55972
542 181 3 0.41 5.94816 2.43384 -6.79861
543 181 5 -0.82 5.18025 2.98456 -7.13322
544 182 3 0.41 10.3859 6.11496 -12.6227
545 182 3 0.41 10.7944 7.31919 -11.651
546 182 5 -0.82 10.4718 6.32767 -11.63
547 183 3 0.41 2.65215 6.08095 -17.2658
548 183 3 0.41 3.29705 4.97944 -18.2226
549 183 5 -0.82 3.51157 5.7099 -17.5572
550 184 3 0.41 0.57705 12.1985 11.8283
551 184 3 0.41 0.956281 -0.353353 12.3641
552 184 5 -0.82 0.624579 -0.851961 11.5342
553 185 3 0.41 4.23193 8.63876 -16.0837
554 185 3 0.41 5.15887 7.82276 -17.087
555 185 5 -0.82 4.88424 7.88036 -16.0948
556 186 3 0.41 10.5408 6.89349 -7.89004
557 186 3 0.41 8.93359 7.01712 -7.98953
558 186 5 -0.82 9.77201 7.19873 -8.47835
559 187 3 0.41 9.84064 1.48795 -1.78067
560 187 3 0.41 8.72148 2.42309 -1.20527
561 187 5 -0.82 9.36764 1.69108 -0.936615
562 188 3 0.41 5.8149 0.987537 -21.3985
563 188 3 0.41 6.4273 2.24112 -21.9548
564 188 5 -0.82 5.55622 1.78598 -21.9305
565 189 3 0.41 6.88302 12.4771 14.0156
566 189 3 0.41 7.58615 -0.350468 13.1524
567 189 5 -0.82 6.88548 -1.06332 13.121
568 190 3 0.41 3.77688 2.58858 12.8792
569 190 3 0.41 4.18046 3.07658 14.4386
570 190 5 -0.82 4.50134 2.50986 13.6271
571 191 3 0.41 9.57166 8.61429 19.1712
572 191 3 0.41 10.2595 9.53594 20.3538
573 191 5 -0.82 10.442 9.13014 19.432
574 192 3 0.41 7.66942 3.04424 20.721
575 192 3 0.41 8.36715 2.5476 19.4371
576 192 5 -0.82 7.56561 3.13163 19.6797
577 193 3 0.41 4.93842 2.13154 22.2129
578 193 3 0.41 5.76901 0.8268 21.6296
579 193 5 -0.82 4.8478 1.19157 21.8715
580 194 3 0.41 -1.3272 -0.308041 13.5837
581 194 3 0.41 0.185143 -0.352972 14.1066
582 194 5 -0.82 -0.763351 -0.22643 14.4226
583 195 3 0.41 11.628 5.37167 14.6825
584 195 3 0.41 12.0798 4.64433 16.1175
585 195 5 -0.82 12.3222 5.38494 15.4758
586 196 3 0.41 9.78161 -0.547191 -21.6797
587 196 3 0.41 10.4151 12.0777 -21.1349
588 196 5 -0.82 10.3 -1.37026 -21.9771
589 197 3 0.41 5.3488 10.0834 7.88185
590 197 3 0.41 4.33843 11.32 8.16733
591 197 5 -0.82 4.86833 10.8564 7.45212
592 198 3 0.41 -1.3231 5.60552 -9.61106
593 198 3 0.41 12.4668 4.36927 -8.75874
594 198 5 -0.82 12.2853 4.68472 -9.69946
595 199 3 0.41 4.7122 0.856964 -3.89685
596 199 3 0.41 4.39855 2.31172 -4.48007
597 199 5 -0.82 4.41884 1.34337 -4.72337
598 200 3 0.41 2.01903 8.81062 7.08488
599 200 3 0.41 1.35736 9.84992 8.2854
600 200 5 -0.82 1.5399 8.88646 7.99324
601 201 3 0.41 7.28407 7.74299 18.4004
602 201 3 0.41 8.05513 8.38397 17.1847
603 201 5 -0.82 8.20657 8.157 18.2091
604 202 3 0.41 6.83307 7.83802 -21.6365
605 202 3 0.41 7.55647 6.66517 -20.7728
606 202 5 -0.82 7.15638 6.84027 -21.714
607 203 3 0.41 4.73052 6.51556 13.5262
608 203 3 0.41 4.31795 6.87381 14.9689
609 203 5 -0.82 4.62969 6.09804 14.4221
610 204 3 0.41 7.01699 7.35593 -14.1803
611 204 3 0.41 7.29744 7.95094 -12.5974
612 204 5 -0.82 6.82672 8.07383 -13.5065
613 205 3 0.41 12.452 11.3439 -12.9298
614 205 3 0.41 11.7246 9.99566 -13.2326
615 205 5 -0.82 11.919 10.8996 -13.6213
616 206 3 0.41 2.30081 6.73726 2.75722
617 206 3 0.41 1.87166 6.31981 1.25262
618 206 5 -0.82 2.01526 7.07476 1.88405
619 207 3 0.41 -1.22508 9.41022 7.23314
620 207 3 0.41 -0.503858 10.311 6.12565
621 207 5 -0.82 -1.35771 9.75676 6.29014
622 208 3 0.41 10.3675 3.57722 0.557626
623 208 3 0.41 11.5248 4.59077 0.658234
624 208 5 -0.82 11.3647 3.59208 0.425984
625 209 3 0.41 -1.23108 0.361712 -18.1195
626 209 3 0.41 -0.914954 0.102608 -19.6867
627 209 5 -0.82 -1.40617 -0.263614 -18.8853
628 210 3 0.41 10.7119 10.7272 11.0093
629 210 3 0.41 9.49238 11.627 11.0024
630 210 5 -0.82 9.70765 10.6757 11.0902
631 211 3 0.41 9.99844 6.20671 13.8671
632 211 3 0.41 9.89525 5.08526 12.6668
633 211 5 -0.82 10.5243 5.50287 13.3535
634 212 3 0.41 2.8163 -1.41609 23.2904
635 212 3 0.41 2.34947 -1.15994 21.7805
636 212 5 -0.82 3.17148 -1.42534 22.3115
637 213 3 0.41 11.2714 0.156661 2.11443
638 213 3 0.41 11.3604 1.05729 3.37208
639 213 5 -0.82 11.6072 0.108757 3.06662
640 214 3 0.41 -0.596428 2.01988 -5.31012
641 214 3 0.41 -0.206516 0.43405 -5.43724
642 214 5 -0.82 -0.216539 1.24258 -4.79962
643 215 3 0.41 2.24552 8.03501 -18.5727
644 215 3 0.41 2.25869 9.08575 -19.6808
645 215 5 -0.82 2.67729 8.18187 -19.4644
646 216 3 0.41 3.34589 2.28749 6.94157
647 216 3 0.41 3.6804 0.866831 7.58074
648 216 5 -0.82 4.01693 1.8025 7.5235
649 217 3 0.41 12.2654 0.961157 -15.4784
650 217 3 0.41 12.4926 -0.44434 -16.2598
651 217 5 -0.82 -1.23345 0.542334 -16.3015
652 218 3 0.41 6.42754 1.78618 5.51112
653 218 3 0.41 7.61245 2.16229 6.53047
654 218 5 -0.82 7.42898 1.71503 5.66307
655 219 3 0.41 9.15326 10.4042 -13.2795
656 219 3 0.41 8.17236 9.20429 -13.757
657 219 5 -0.82 8.95723 9.78944 -14.0904
658 220 3 0.41 8.27323 6.00665 16.0896
659 220 3 0.41 9.08327 6.62413 17.3456
660 220 5 -0.82 9.17384 6.41496 16.352
661 221 3 0.41 4.57634 7.96823 -19.0088
662 221 3 0.41 5.69119 6.90424 -19.2897
663 221 5 -0.82 5.53544 7.74635 -18.7322
664 222 3 0.41 10.1511 0.962438 -18.7601
665 222 3 0.41 11.017 2.26495 -19.2624
666 222 5 -0.82 10.1563 1.71702 -19.4876
667 223 3 0.41 4.1132 7.63046 -9.58002
668 223 3 0.41 5.33927 8.70842 -9.37358
669 223 5 -0.82 5.09827 7.79833 -9.71285
670 224 3 0.41 3.89364 7.94204 2.00184
671 224 3 0.41 5.20238 7.83027 2.98153
672 224 5 -0.82 4.57125 8.53303 2.51025
673 225 3 0.41 5.30021 0.736856 1.37147
674 225 3 0.41 3.82068 0.268328 2.01811
675 225 5 -0.82 4.42027 0.237644 1.19241
676 226 3 0.41 10.9243 11.9094 18.9168
677 226 3 0.41 12.365 11.0726 18.7538
678 226 5 -0.82 11.9399 11.9543 18.777
679 227 3 0.41 9.35782 8.14435 21.6768
680 227 3 0.41 10.1137 6.77107 22.0141
681 227 5 -0.82 9.33395 7.16022 21.4975
682 228 3 0.41 7.42614 0.466421 -11.9486
683 228 3 0.41 6.64641 1.34843 -10.9029
684 228 5 -0.82 6.84218 1.25725 -11.902
685 229 3 0.41 6.92883 10.2641 -22.1531
686 229 3 0.41 5.45416 9.91513 -21.5064
687 229 5 -0.82 6.38372 9.50793 -21.7724
688 230 3 0.41 2.16105 1.97155 4.12974
689 230 3 0.41 2.01154 3.35823 4.88721
690 230 5 -0.82 2.74332 2.69236 4.57651
691 231 3 0.41 2.44541 10.1163 -15.8929
692 231 3 0.41 2.7947 11.008 -17.0967
693 231 5 -0.82 2.85498 10.0509 -16.7761
694 232 3 0.41 7.31266 3.37512 -2.48826
695 232 3 0.41 6.64875 4.01376 -1.16609
696 232 5 -0.82 7.43705 3.46125 -1.49082
697 233 3 0.41 12.1912 6.21261 2.08148
698 233 3 0.41 -0.88999 5.82192 0.998295
699 233 5 -0.82 12.1273 5.94592 1.11917
700 234 3 0.41 2.97603 7.8796 9.11979
701 234 3 0.41 3.07453 6.56291 8.24163
702 234 5 -0.82 3.11324 6.86973 9.20595
703 235 3 0.41 2.62513 3.76629 9.50793
704 235 3 0.41 4.01669 2.95221 9.26853
705 235 5 -0.82 3.62595 3.88247 9.40707
706 236 3 0.41 9.13194 9.20923 -1.92188
707 236 3 0.41 10.4832 8.61418 -2.40103
708 236 5 -0.82 9.50719 8.51647 -2.53047
709 237 3 0.41 1.09475 2.61025 8.20977
710 237 3 0.41 0.00533467 2.48291 7.04232
711 237 5 -0.82 0.993361 2.31316 7.22788
712 238 3 0.41 0.272002 10.4963 13.7413
713 238 3 0.41 0.200592 10.1011 12.0827
714 238 5 -0.82 0.0376334 10.8574 12.8008
715 239 3 0.41 12.426 10.6308 -3.85084
716 239 3 0.41 -0.0679264 10.1124 -3.6698
717 239 5 -0.82 -0.872314 10.0411 -4.27168
718 240 3 0.41 1.91492 7.92172 -16.1877
719 240 3 0.41 0.383531 7.81041 -16.7408
720 240 5 -0.82 1.36168 7.55858 -16.982
721 241 3 0.41 8.5097 5.28857 -2.91196
722 241 3 0.41 7.55694 6.32523 -2.2054
723 241 5 -0.82 7.69658 5.85898 -3.11179
724 242 3 0.41 -0.39841 5.81123 -1.29361
725 242 3 0.41 -1.34558 5.46262 -2.52689
726 242 5 -0.82 -1.04606 6.27181 -1.96218
727 243 3 0.41 4.39966 2.63267 -13.3671
728 243 3 0.41 5.79991 1.84881 -13.1176
729 243 5 -0.82 5.14074 2.09657 -13.8432
730 244 3 0.41 -0.0384087 4.14464 20.8992
731 244 3 0.41 0.823825 4.58324 22.1233
732 244 5 -0.82 -0.0752828 4.72823 21.6861
733 245 3 0.41 5.14404 4.70461 -21.1448
734 245 3 0.41 5.82731 6.05393 -21.7261
735 245 5 -0.82 5.126 5.33229 -21.9013
736 246 3 0.41 5.47294 7.92922 12.2471
737 246 3 0.41 4.47046 8.12122 10.9567
738 246 5 -0.82 4.9869 7.40023 11.4564
739 247 3 0.41 -0.0240961 8.38829 18.9581
740 247 3 0.41 -0.519641 6.94706 19.3663
741 247 5 -0.82 0.326405 7.53537 19.3752
742 248 3 0.41 11.5629 4.88708 10.1874
743 248 3 0.41 12.0302 3.40328 9.70892
744 248 5 -0.82 12.1817 4.40431 9.57293
745 249 3 0.41 3.84086 -0.900046 -18.3812
746 249 3 0.41 2.40833 -1.09093 -17.6195
747 249 5 -0.82 3.18737 12.4225 -17.9907
748 250 3 0.41 6.13754 3.37275 23.1385
749 250 3 0.41 6.27784 4.59349 22.0388
750 250 5 -0.82 5.84023 3.67431 22.2024
751 251 3 0.41 -1.35997 2.85992 21.7209
752 251 3 0.41 -0.450347 2.19264 22.8043