ITEM: TIMESTEP
30000
ITEM: NUMBER OF ATOMS
1360
ITEM: BOX BOUNDS pp pp pp
-1.5000000000000000e+00 1.2500000000000000e+01
-1.5000000000000000e+00 1.2500000000000000e+01
-2.7500000000000000e+01 2.7500000000000000e+01
ITEM: ATOMS id mol type q x y z
1 1 3 0.41 11.1555 3.65774 7.49803
2 1 3 0.41 -1.44718 3.37201 8.15686
3 1 5 -0.82 11.5561 3.27606 8.32383
4 2 3 0.41 3.04904 11.9042 -6.59386
5 2 3 0.41 3.68655 -0.960162 -5.51281
6 2 5 -0.82 3.55076 -1.20821 -6.48037
7 3 3 0.41 6.76637 1.89205 12.6434
8 3 3 0.41 7.94549 1.25498 11.5633
9 3 5 -0.82 7.72766 2.06058 12.199
10 4 3 0.41 5.45455 0.302977 -13.9911
11 4 3 0.41 6.47557 0.476878 -12.7659
12 4 5 -0.82 5.4927 0.60465 -13.0306
13 5 3 0.41 2.30078 10.1731 -11.6139
14 5 3 0.41 2.62901 8.84562 -10.6776
15 5 5 -0.82 1.89572 9.30516 -11.272
16 6 3 0.41 3.65794 3.37209 -18.784
17 6 3 0.41 4.31384 3.27861 -20.1733
18 6 5 -0.82 3.72732 2.71721 -19.5401
19 7 3 0.41 2.78551 8.06315 -21.1198
20 7 3 0.41 3.24304 6.96256 -22.1485
21 7 5 -0.82 3.32496 7.9776 -22.0003
22 8 3 0.41 5.15716 5.72647 15.4906
23 8 3 0.41 5.22904 6.20495 13.982
24 8 5 -0.82 5.63535 5.52669 14.6393
25 9 3 0.41 11.7289 0.138551 -13.4623
26 9 3 0.41 10.6564 0.312449 -12.1679
27 9 5 -0.82 10.7585 0.32655 -13.1989
28 10 3 0.41 -0.652022 -1.02588 -1.13782
29 10 3 0.41 -0.459269 0.247352 -0.206334
30 10 5 -0.82 0.0799438 -0.3758 -0.843635
31 11 3 0.41 9.97881 2.46539 -6.16577
32 11 3 0.41 10.3959 0.974754 -5.71077
33 11 5 -0.82 10.5992 1.72423 -6.40554
34 12 3 0.41 -0.755444 8.10406 -16.968
35 12 3 0.41 -1.23099 8.09031 -15.4129
36 12 5 -0.82 -0.640562 8.60228 -16.0847
37 13 3 0.41 6.63891 7.45413 12.3866
38 13 3 0.41 7.67845 6.31203 12.9261
39 13 5 -0.82 7.59615 7.32482 12.7388
40 14 3 0.41 10.5759 -0.239504 -9.91637
41 14 3 0.41 9.91358 1.08197 -10.3077
42 14 5 -0.82 10.7266 0.532341 -10.5559
43 15 3 0.41 1.58698 2.1176 12.1455
44 15 3 0.41 0.418422 1.72351 13.1011
45 15 5 -0.82 1.07129 2.45702 12.9585
46 16 3 0.41 5.45863 3.4594 17.8129
47 16 3 0.41 3.95408 2.9094 18.0681
48 16 5 -0.82 4.87264 2.62694 17.7709
49 17 3 0.41 4.02418 8.68363 21.7726
50 17 3 0.41 4.21949 9.65057 23.0779
51 17 5 -0.82 3.82439 9.63591 22.1468
52 18 3 0.41 -0.696271 10.7538 -15.4481
53 18 3 0.41 -1.1494 10.3867 -13.9863
54 18 5 -0.82 -0.694824 11.1065 -14.4944
55 19 3 0.41 12.4642 7.95983 5.37246
56 19 3 0.41 -1.42471 9.48233 4.54838
57 19 5 -0.82 -1.04414 8.84364 5.25086
58 20 3 0.41 5.12124 7.72017 -7.27286
59 20 3 0.41 6.06797 6.45728 -7.32115
60 20 5 -0.82 5.26077 6.85826 -7.76934
61 21 3 0.41 10.8563 6.80593 21.4857
62 21 3 0.41 10.082 5.43835 21.2846
63 21 5 -0.82 10.9047 5.95934 20.9531
64 22 3 0.41 7.72016 7.7457 -16.5937
65 22 3 0.41 6.13446 8.29894 -16.9806
66 22 5 -0.82 7.1501 8.47232 -17.0097
67 23 3 0.41 11.2302 4.65209 -19.2975
68 23 3 0.41 -1.15807 4.55075 -19.364
69 23 5 -0.82 12.0712 4.84924 -18.7672
70 24 3 0.41 1.32082 10.5289 -14.1244
71 24 3 0.41 2.93899 10.7962 -14.3775
72 24 5 -0.82 2.0437 10.5663 -14.8316
73 25 3 0.41 3.36491 1.67582 -16.9887
74 25 3 0.41 4.42336 2.6737 -16.251
75 25 5 -0.82 3.44194 2.61509 -16.618
76 26 3 0.41 -0.0986911 1.14599 -12.6938
77 26 3 0.41 -0.123447 1.90741 -11.248
78 26 5 -0.82 0.468329 1.34377 -11.8475
79 27 3 0.41 -0.02944 0.955699 -17.0872
80 27 3 0.41 -0.626407 -0.414702 -17.8072
81 27 5 -0.82 -0.0586283 -0.0665249 -17.0253
82 28 3 0.41 8.14028 11.6456 -12.3665
83 28 3 0.41 8.21031 11.8757 -10.7111
84 28 5 -0.82 8.72145 12.0792 -11.6077
85 29 3 0.41 12.4541 5.60375 18.3667
86 29 3 0.41 12.0949 5.85187 19.9632
87 29 5 -0.82 -1.11422 5.57956 19.2917
88 30 3 0.41 2.95848 5.28826 9.83531
89 30 3 0.41 4.28494 4.59756 9.19779
90 30 5 -0.82 3.43593 5.06825 8.96774
91 31 3 0.41 1.2468 11.0961 -16.3476
92 31 3 0.41 0.571229 12.43 -16.9754
93 31 5 -0.82 0.847641 11.4479 -17.2106
94 32 3 0.41 2.39967 4.41911 -22.2476
95 32 3 0.41 1.89355 5.81908 -21.8256
96 32 5 -0.82 2.77511 5.33143 -22.0415
97 33 3 0.41 3.20364 1.97239 -4.50836
98 33 3 0.41 4.29565 0.923541 -4.60728
99 33 5 -0.82 4.05102 1.83688 -5.06389
100 34 3 0.41 7.52543 12.4407 2.94707
101 34 3 0.41 6.55979 11.9864 1.74096
102 34 5 -0.82 7.51591 12.0432 2.01668
103 35 3 0.41 4.5099 9.91151 12.9695
104 35 3 0.41 4.19413 11.2462 13.9334
105 35 5 -0.82 4.47873 10.9116 13.0127
106 36 3 0.41 4.7523 8.71056 -0.729633
107 36 3 0.41 6.1072 8.52478 0.0823145
108 36 5 -0.82 5.47348 9.25103 -0.277444
109 37 3 0.41 -1.30164 0.0963735 21.919
110 37 3 0.41 -0.0549315 0.442317 22.9443
111 37 5 -0.82 -0.49822 0.693695 22.047
112 38 3 0.41 0.63374 5.39 3.87297
113 38 3 0.41 1.14618 3.89027 3.89634
114 38 5 -0.82 0.895133 4.64989 3.27394
115 39 3 0.41 8.64371 8.90342 -15.1826
116 39 3 0.41 7.75609 8.61615 -13.8219
117 39 5 -0.82 8.30789 9.35898 -14.3194
118 40 3 0.41 10.2428 11.1701 -16.8528
119 40 3 0.41 10.407 9.48742 -16.9562
120 40 5 -0.82 10.2719 10.3764 -17.5055
121 41 3 0.41 5.06706 9.76896 -13.9205
122 41 3 0.41 4.64254 9.90452 -12.3459
123 41 5 -0.82 4.48959 9.33295 -13.1916
124 42 3 0.41 11.0156 -0.107654 3.73352
125 42 3 0.41 9.4836 -0.563062 3.58654
126 42 5 -0.82 10.4283 -0.920961 3.52511
127 43 3 0.41 8.93311 6.57264 15.3692
128 43 3 0.41 10.1683 6.13037 14.4851
129 43 5 -0.82 9.59218 5.85606 15.317
130 44 3 0.41 6.22754 9.83655 -16.1745
131 44 3 0.41 5.40353 11.2041 -15.8894
132 44 5 -0.82 5.89049 10.4167 -15.4236
133 45 3 0.41 4.68994 11.1103 2.0397
134 45 3 0.41 5.06418 10.7471 0.548064
135 45 5 -0.82 5.06527 11.5546 1.20943
136 46 3 0.41 6.82755 4.97086 13.6918
137 46 3 0.41 7.50242 3.72579 13.025
138 46 5 -0.82 7.5619 4.73436 13.0118
139 47 3 0.41 3.5535 -0.202634 3.40023
140 47 3 0.41 4.91813 -0.685191 2.47049
141 47 5 -0.82 4.10718 -0.0667958 2.58413
142 48 3 0.41 2.03522 7.2085 19.3385
143 48 3 0.41 1.32368 6.11529 18.4945
144 48 5 -0.82 1.89608 6.20933 19.3545
145 49 3 0.41 4.4151 3.28667 -5.66488
146 49 3 0.41 5.18725 4.67965 -5.27355
147 49 5 -0.82 4.49504 4.29571 -5.94215
148 50 3 0.41 12.2921 4.05234 19.7729
149 50 3 0.41 11.3265 2.96337 20.6074
150 50 5 -0.82 11.7557 3.17956 19.6856
151 51 3 0.41 9.3081 10.386 8.80553
152 51 3 0.41 8.94453 10.2238 10.353
153 51 5 -0.82 9.74975 10.3914 9.73623
154 52 3 0.41 0.344454 5.0826 -16.8984
155 52 3 0.41 0.147536 4.14646 -15.674
156 52 5 -0.82 0.132442 5.12953 -15.9133
157 53 3 0.41 9.84516 9.71815 5.07774
158 53 3 0.41 9.39141 8.76426 3.95983
159 53 5 -0.82 9.02201 9.4628 4.56425
160 54 3 0.41 3.52617 4.14799 14.5137
161 54 3 0.41 2.63293 3.0619 13.7752
162 54 5 -0.82 3.23816 3.17916 14.5903
163 55 3 0.41 6.11865 9.89397 15.1703
164 55 3 0.41 6.25862 11.2388 14.1267
165 55 5 -0.82 6.72277 10.4836 14.5609
166 56 3 0.41 11.468 6.08842 4.2694
167 56 3 0.41 10.2172 6.74824 5.03592
168 56 5 -0.82 11.2373 6.75358 4.9805
169 57 3 0.41 6.4423 2.52784 -15.513
170 57 3 0.41 6.98381 1.83322 -16.7096
171 57 5 -0.82 6.10572 2.26713 -16.4267
172 58 3 0.41 7.4283 11.061 -21.7116
173 58 3 0.41 6.65228 9.95989 -20.8962
174 58 5 -0.82 6.84916 10.2284 -21.8699
175 59 3 0.41 8.44842 -0.33939 9.71484
176 59 3 0.41 7.37706 -1.43376 9.67465
177 59 5 -0.82 7.9654 -0.91376 9.03034
178 60 3 0.41 7.77185 8.72148 -1.39311
179 60 3 0.41 6.84962 9.81233 -0.963304
180 60 5 -0.82 7.78387 9.69758 -1.29576
181 61 3 0.41 11.6772 4.62476 16.3409
182 61 3 0.41 11.0024 6.03965 16.449
183 61 5 -0.82 11.6994 5.45315 16.9248
184 62 3 0.41 10.3674 11.4355 6.00526
185 62 3 0.41 11.8411 11.1144 5.7314
186 62 5 -0.82 10.972 10.6077 5.90104
187 63 3 0.41 10.4418 8.41237 15.6401
188 63 3 0.41 10.4315 7.51748 17.0261
189 63 5 -0.82 10.9411 8.2481 16.5119
190 64 3 0.41 3.96222 11.913 7.78129
191 64 3 0.41 2.8443 -1.08328 8.12526
192 64 5 -0.82 3.02906 12.2379 7.40749
193 65 3 0.41 -0.582959 3.81431 -1.87988
194 65 3 0.41 0.663096 2.80527 -1.61456
195 65 5 -0.82 -0.198981 2.9252 -2.18088
196 66 3 0.41 10.1051 2.3425 3.91933
197 66 3 0.41 8.93245 3.03222 3.00464
198 66 5 -0.82 9.11167 2.60503 3.93453
199 67 3 0.41 1.56802 4.25603 10.9132
200 67 3 0.41 0.574572 5.47219 11.0506
201 67 5 -0.82 1.55849 5.26692 10.9703
202 68 3 0.41 1.41863 11.393 20.1336
203 68 3 0.41 2.53232 12.4473 20.7788
204 68 5 -0.82 2.28654 11.8929 19.9055
205 69 3 0.41 2.91135 2.28002 -22.1433
206 69 3 0.41 1.27093 2.01474 -22.1469
207 69 5 -0.82 2.0051 2.71222 -22.1663
208 70 3 0.41 9.63022 5.83715 -19.4143
209 70 3 0.41 9.52391 7.40258 -18.8719
210 70 5 -0.82 9.20043 6.45267 -18.7407
211 71 3 0.41 11.3159 10.5102 2.42545
212 71 3 0.41 -1.14998 10.7594 2.26565
213 71 5 -0.82 12.1868 10.3252 2.90166
214 72 3 0.41 10.5739 11.117 17.2905
215 72 3 0.41 9.42551 11.8417 16.4569
216 72 5 -0.82 10.4273 11.9316 16.6708
217 73 3 0.41 11.2452 5.73333 -9.70772
218 73 3 0.41 10.1067 4.64534 -9.08507
219 73 5 -0.82 11.0405 4.71494 -9.49772
220 74 3 0.41 2.84847 2.71886 -0.444429
221 74 3 0.41 1.76706 3.74569 -0.162748
222 74 5 -0.82 1.85363 2.86217 -0.567088
223 75 3 0.41 8.74439 4.74885 -7.54132
224 75 3 0.41 7.64174 4.30951 -8.59886
225 75 5 -0.82 8.67033 4.39788 -8.50624
226 76 3 0.41 3.96644 2.8808 -9.06354
227 76 3 0.41 3.04381 2.65797 -10.2926
228 76 5 -0.82 3.32434 3.41576 -9.65772
229 77 3 0.41 9.15889 3.34834 17.1333
230 77 3 0.41 9.32115 4.45364 15.9384
231 77 5 -0.82 9.36569 3.46021 16.1682
232 78 3 0.41 11.9754 11.8773 -11.4497
233 78 3 0.41 10.3638 11.5162 -11.6116
234 78 5 -0.82 11.3185 11.1313 -11.7343
235 79 3 0.41 3.99697 8.8582 3.6187
236 79 3 0.41 5.45369 9.22773 2.69081
237 79 5 -0.82 4.53022 9.52004 3.01901
238 80 3 0.41 2.78483 5.45397 -12.6237
239 80 3 0.41 3.47389 3.9802 -12.9338
240 80 5 -0.82 2.65361 4.44345 -12.5549
241 81 3 0.41 10.1047 -0.384907 -1.73988
242 81 3 0.41 9.56425 1.10381 -2.1176
243 81 5 -0.82 10.4028 0.540877 -2.03986
244 82 3 0.41 1.93242 10.097 -1.29954
245 82 3 0.41 1.54726 9.56173 -2.70728
246 82 5 -0.82 1.40664 10.3458 -2.08114
247 83 3 0.41 6.13868 12.3837 6.42174
248 83 3 0.41 6.80219 -0.968306 7.77254
249 83 5 -0.82 6.03681 -0.87701 7.12354
250 84 3 0.41 10.2469 -0.0521216 1.19059
251 84 3 0.41 8.83504 0.612252 0.705073
252 84 5 -0.82 9.82455 0.821495 0.933446
253 85 3 0.41 5.81065 3.571 21.2522
254 85 3 0.41 6.9706 2.56366 21.0698
255 85 5 -0.82 6.4813 3.22173 20.5158
256 86 3 0.41 -1.11624 9.66996 -18.4035
257 86 3 0.41 0.0841156 10.8773 -18.5384
258 86 5 -0.82 -0.706974 10.3646 -18.9881
259 87 3 0.41 4.11527 0.715187 6.00384
260 87 3 0.41 2.90833 1.42104 5.21106
261 87 5 -0.82 3.39605 0.555008 5.26413
262 88 3 0.41 6.0711 0.475961 15.8454
263 88 3 0.41 5.29109 1.23493 16.9252
264 88 5 -0.82 5.62099 0.276464 16.7056
265 89 3 0.41 8.69115 5.13107 -21.3133
266 89 3 0.41 7.56085 5.94084 -22.0129
267 89 5 -0.82 7.74422 4.97122 -21.7294
268 90 3 0.41 9.36946 5.94316 -12.3525
269 90 3 0.41 8.51343 5.28331 -11.3082
270 90 5 -0.82 9.16282 6.01843 -11.3929
271 91 3 0.41 6.10448 0.736432 6.61686
272 91 3 0.41 5.68853 2.01996 7.34215
273 91 5 -0.82 5.93974 1.69701 6.40733
274 92 3 0.41 0.393679 7.67882 5.15725
275 92 3 0.41 0.856229 6.55175 6.18907
276 92 5 -0.82 1.04772 6.86965 5.2606
277 93 3 0.41 2.03365 11.0745 10.544
278 93 3 0.41 2.46148 9.55405 10.2358
279 93 5 -0.82 2.84357 10.5262 10.3201
280 94 3 0.41 6.16766 8.3696 4.901
281 94 3 0.41 7.57525 8.72725 5.3339
282 94 5 -0.82 6.65863 8.50162 5.75872
283 95 3 0.41 0.207417 6.57362 13.1279
284 95 3 0.41 0.31876 7.93127 13.9539
285 95 5 -0.82 0.286819 7.56002 13.0424
286 96 3 0.41 -0.721097 3.71283 10.7755
287 96 3 0.41 12.4556 4.04452 12.0164
288 96 5 -0.82 -1.12029 4.49376 11.2615
289 97 3 0.41 7.05019 9.86715 18.4012
290 97 3 0.41 5.70347 10.6443 18.5252
291 97 5 -0.82 6.08916 9.69426 18.6381
292 98 3 0.41 9.77225 1.60499 -17.6844
293 98 3 0.41 11.3182 1.82551 -17.4018
294 98 5 -0.82 10.6114 1.87116 -18.1681
295 99 3 0.41 7.87841 10.6621 4.82104
296 99 3 0.41 7.15356 12.1546 4.82252
297 99 5 -0.82 7.13542 11.2307 5.25844
298 100 3 0.41 1.4835 -0.369122 0.769596
299 100 3 0.41 2.98796 -0.538038 1.31164
300 100 5 -0.82 2.2265 -1.02289 0.871718
301 101 3 0.41 6.03808 9.7942 -7.61305
302 101 3 0.41 7.53197 10.3333 -7.21885
303 101 5 -0.82 7.0003 9.78193 -7.90938
304 102 3 0.41 4.71928 -0.365874 -16.3009
305 102 3 0.41 6.24371 -0.442145 -16.0367
306 102 5 -0.82 5.34058 -0.481371 -15.5423
307 103 3 0.41 5.43559 8.90615 17.0354
308 103 3 0.41 4.15238 8.74686 15.9876
309 103 5 -0.82 5.12601 8.96471 16.0792
310 104 3 0.41 0.352502 9.23607 -11.1528
311 104 3 0.41 -1.02243 10.1272 -11.1706
312 104 5 -0.82 -0.643948 9.21009 -11.284
313 105 3 0.41 7.69295 3.57997 8.10125
314 105 3 0.41 7.17496 4.62432 6.99545
315 105 5 -0.82 7.94097 4.40627 7.58594
316 106 3 0.41 1.09256 10.3763 -5.42164
317 106 3 0.41 1.46767 10.4477 -6.82386
318 106 5 -0.82 1.04198 11.0824 -6.15093
319 107 3 0.41 1.48584 10.819 -8.9452
320 107 3 0.41 0.964849 12.4139 -9.28894
321 107 5 -0.82 0.760297 11.4192 -9.39609
322 108 3 0.41 4.54358 11.6601 -18.6739
323 108 3 0.41 4.02256 11.8506 -20.1177
324 108 5 -0.82 4.88892 11.9595 -19.5954
325 109 3 0.41 9.90291 12.4683 -18.248
326 109 3 0.41 8.69843 -0.729342 -18.8214
327 109 5 -0.82 9.53518 -1.16636 -19.1292
328 110 3 0.41 6.15613 2.71499 -3.75251
329 110 3 0.41 7.56817 2.95695 -4.3993
330 110 5 -0.82 6.82216 2.27363 -4.37173
331 111 3 0.41 1.54316 5.75457 -15.2086
332 111 3 0.41 1.8582 6.97774 -14.4627
333 111 5 -0.82 2.35199 6.3231 -15.0711
334 112 3 0.41 11.4353 4.2647 -21.8648
335 112 3 0.41 -0.942587 4.22388 -21.685
336 112 5 -0.82 12.2607 3.64153 -21.8501
337 113 3 0.41 2.9221 0.43033 18.709
338 113 3 0.41 1.35253 0.597717 18.4501
339 113 5 -0.82 2.2379 0.414727 17.9777
340 114 3 0.41 4.24724 -1.02439 -14.0779
341 114 3 0.41 3.24875 -1.46439 -13.0367
342 114 5 -0.82 4.00878 12.1537 -13.544
343 115 3 0.41 2.29745 2.75357 7.42133
344 115 3 0.41 3.51843 2.08256 8.35667
345 115 5 -0.82 2.69115 1.89628 7.77483
346 116 3 0.41 -0.663478 11.3776 21.1559
347 116 3 0.41 -1.10743 12.1052 20.0006
348 116 5 -0.82 -0.368139 12.1758 20.663
349 117 3 0.41 10.1071 1.89227 -13.0074
350 117 3 0.41 8.9381 2.84915 -12.3341
351 117 5 -0.82 9.51331 2.69409 -13.1584
352 118 3 0.41 11.8364 9.80933 -1.89695
353 118 3 0.41 -0.710857 10.3824 -2.05731
354 118 5 -0.82 12.3535 10.7013 -1.95995
355 119 3 0.41 -1.05135 3.87335 -6.93238
356 119 3 0.41 12.182 4.29673 -8.29302
357 119 5 -0.82 -0.982753 4.47414 -7.72479
358 120 3 0.41 0.338731 0.11748 10.6645
359 120 3 0.41 0.248788 -0.642474 9.32588
360 120 5 -0.82 0.420908 0.30382 9.65505
361 121 3 0.41 -1.27829 6.92107 -19.1739
362 121 3 0.41 0.156896 6.98325 -18.4813
363 121 5 -0.82 -0.783308 7.38056 -18.4412
364 122 3 0.41 11.3388 9.4456 7.07996
365 122 3 0.41 10.5088 9.1619 8.41202
366 122 5 -0.82 11.1742 8.72201 7.77416
367 123 3 0.41 7.32334 4.81325 2.62485
368 123 3 0.41 5.93906 5.37601 2.97746
369 123 5 -0.82 6.4726 5.03542 2.17139
370 124 3 0.41 11.291 6.51125 -5.65664
371 124 3 0.41 10.3761 7.85847 -5.62585
372 124 5 -0.82 11.1231 7.42325 -6.1518
373 125 3 0.41 11.7253 1.6715 -7.49406
374 125 3 0.41 -1.31359 0.443958 -7.86028
375 125 5 -0.82 -1.40303 1.44931 -7.99946
376 126 3 0.41 -0.278337 3.28493 -14.0557
377 126 3 0.41 -1.34301 3.03819 -12.7502
378 126 5 -0.82 -1.25214 3.25508 -13.7407
379 127 3 0.41 -0.252963 -0.141135 16.2765
380 127 3 0.41 0.81946 -1.29929 16.7827
381 127 5 -0.82 -0.119787 -1.05979 16.5968
382 128 3 0.41 0.736234 4.15511 6.21637
383 128 3 0.41 1.1931 4.86514 7.60088
384 128 5 -0.82 1.29527 4.03308 7.05393
385 129 3 0.41 9.59179 7.08657 3.27175
386 129 3 0.41 9.9467 7.32803 1.71013
387 129 5 -0.82 9.74335 7.81481 2.58073
388 130 3 0.41 -0.86429 5.45619 -3.12551
389 130 3 0.41 -0.439694 4.70839 -4.51945
390 130 5 -0.82 -0.160305 5.41545 -3.82795
391 131 3 0.41 1.29014 2.30283 -8.58093
392 131 3 0.41 -0.335799 2.10086 -8.68088
393 131 5 -0.82 0.506701 2.4712 -9.16353
394 132 3 0.41 7.15691 11.2992 -3.63202
395 132 3 0.41 8.71346 11.5137 -3.59389
396 132 5 -0.82 7.98458 11.3671 -4.27675
397 133 3 0.41 2.35863 7.65095 4.75435
398 133 3 0.41 3.40337 8.31764 5.79596
399 133 5 -0.82 3.26129 8.09887 4.776
400 134 3 0.41 10.4748 4.17356 -1.20408
401 134 3 0.41 9.58939 3.10286 -1.8126
402 134 5 -0.82 10.5577 3.27938 -1.65281
403 135 3 0.41 11.3022 1.84211 -21.6732
404 135 3 0.41 9.76413 1.35974 -21.7893
405 135 5 -0.82 10.7198 1.06625 -21.9838
406 136 3 0.41 6.40711 4.43699 10.1664
407 136 3 0.41 6.65866 5.31191 11.5356
408 136 5 -0.82 6.80521 5.32114 10.5034
409 137 3 0.41 4.21149 11.2576 5.88163
410 137 3 0.41 4.21916 10.8772 4.292
411 137 5 -0.82 3.99073 11.5898 4.93192
412 138 3 0.41 9.19919 -0.324902 16.9213
413 138 3 0.41 8.49056 1.04204 17.1092
414 138 5 -0.82 9.06856 0.553471 16.4224
415 139 3 0.41 8.24956 11.9779 22.775
416 139 3 0.41 8.05432 -0.499648 23.3074
417 139 5 -0.82 8.48503 -1.07588 22.5486
418 140 3 0.41 -0.464435 4.32476 1.58874
419 140 3 0.41 12.4722 3.29151 2.04266
420 140 5 -0.82 -1.06601 3.60457 1.18496
421 141 3 0.41 8.84014 3.54185 -20.0175
422 141 3 0.41 10.2168 3.00061 -19.3228
423 141 5 -0.82 9.7864 3.78955 -19.8443
424 142 3 0.41 12.3287 10.4945 -8.1169
425 142 3 0.41 12.3676 12.0566 -8.00507
426 142 5 -0.82 11.7825 11.3121 -8.4091
427 143 3 0.41 11.1437 2.02948 9.41487
428 143 3 0.41 11.0378 0.367306 9.47395
429 143 5 -0.82 10.956 1.20679 10.0373
430 144 3 0.41 0.686497 3.84138 -10.0459
431 144 3 0.41 1.30625 4.45893 -11.26
432 144 5 -0.82 0.767621 4.79724 -10.4774
433 145 3 0.41 6.90218 2.03135 -6.03094
434 145 3 0.41 6.71358 0.655677 -6.74865
435 145 5 -0.82 6.89579 1.62054 -6.98361
436 146 3 0.41 0.653332 6.24483 -9.76736
437 146 3 0.41 -0.702569 7.17063 -9.59983
438 146 5 -0.82 0.261392 7.03344 -9.23687
439 147 3 0.41 8.50602 6.92186 -7.53556
440 147 3 0.41 10.1542 7.16667 -7.50273
441 147 5 -0.82 9.30764 7.2112 -8.08668
442 148 3 0.41 1.85261 3.58723 18.712
443 148 3 0.41 0.983998 2.54443 19.6593
444 148 5 -0.82 1.55638 3.36459 19.6707
445 149 3 0.41 4.18659 3.71413 -3.21444
446 149 3 0.41 4.89954 3.07353 -1.86676
447 149 5 -0.82 5.0767 3.4325 -2.80875
448 150 3 0.41 0.993317 0.589741 -9.75421
449 150 3 0.41 2.57595 0.475565 -9.299
450 150 5 -0.82 1.65782 -0.0136319 -9.32123
451 151 3 0.41 12.3115 12.1148 12.1524
452 151 3 0.41 11.3814 10.8852 11.733
453 151 5 -0.82 11.3995 11.8533 11.8629
454 152 3 0.41 1.17683 10.2111 6.04158
455 152 3 0.41 0.33965 11.3047 5.28371
456 152 5 -0.82 1.28796 10.9575 5.38329
457 153 3 0.41 5.91332 10.4264 9.6271
458 153 3 0.41 6.92008 10.7762 10.7154
459 153 5 -0.82 6.18227 11.209 10.1548
460 154 3 0.41 2.27606 5.71497 -18.6319
461 154 3 0.41 0.96914 4.95967 -19.1453
462 154 5 -0.82 1.26284 5.66848 -18.4725
463 155 3 0.41 3.53425 6.89677 17.0386
464 155 3 0.41 4.43378 5.60615 17.5826
465 155 5 -0.82 3.99553 6.01462 16.7613
466 156 3 0.41 1.96675 8.04876 -19.0975
467 156 3 0.41 0.9956 7.63799 -20.306
468 156 5 -0.82 1.71619 8.28714 -20.0589
469 157 3 0.41 11.1784 3.89711 14.2578
470 157 3 0.41 -1.2888 4.04729 14.7205
471 157 5 -0.82 11.8474 3.5382 14.8915
472 158 3 0.41 7.1629 4.16906 -13.8127
473 158 3 0.41 8.11449 2.97046 -13.8572
474 158 5 -0.82 7.25093 3.26168 -14.306
475 159 3 0.41 0.698285 -1.37326 -11.7678
476 159 3 0.41 2.06126 12.4708 -11.0117
477 159 5 -0.82 1.71197 -1.30694 -11.981
478 160 3 0.41 10.2767 3.76817 19.0602
479 160 3 0.41 9.74852 5.31181 18.8413
480 160 5 -0.82 9.43886 4.34067 18.9107
481 161 3 0.41 -1.06878 2.33308 -16.6666
482 161 3 0.41 12.1355 2.20922 -15.2036
483 161 5 -0.82 12.2116 1.84395 -16.1326
484 162 3 0.41 3.35499 -0.439301 -3.19997
485 162 3 0.41 4.91032 -0.931667 -3.43806
486 162 5 -0.82 4.06998 -0.577573 -3.92926
487 163 3 0.41 4.8602 1.96272 -10.7011
488 163 3 0.41 6.37734 1.54017 -11.2142
489 163 5 -0.82 5.86384 2.07867 -10.5065
490 164 3 0.41 12.1707 -0.901702 -6.09949
491 164 3 0.41 11.429 11.8132 -5.51156
492 164 5 -0.82 11.5626 -1.17244 -5.34257
493 165 3 0.41 -0.885054 0.412612 19.0748
494 165 3 0.41 -0.00828072 0.621344 20.4041
495 165 5 -0.82 -0.0496915 0.911812 19.4211
496 166 3 0.41 9.27525 2.85642 1.11789
497 166 3 0.41 9.26743 4.50306 1.01282
498 166 5 -0.82 8.98022 3.71666 1.60307
499 167 3 0.41 4.78452 2.0185 -13.6397
500 167 3 0.41 5.53897 3.40551 -13.9854
501 167 5 -0.82 4.63916 3.02418 -13.6675
502 168 3 0.41 -0.623199 -0.277767 -11.4545
503 168 3 0.41 -0.56953 -1.45612 -10.2281
504 168 5 -0.82 -0.819525 -1.22938 -11.2011
505 169 3 0.41 5.10651 1.40244 3.1028
506 169 3 0.41 5.94473 2.5878 3.76457
507 169 5 -0.82 6.08217 1.73527 3.23073
508 170 3 0.41 4.02051 6.98035 7.3176
509 170 3 0.41 2.80213 7.39139 8.31016
510 170 5 -0.82 3.29061 7.68126 7.50079
511 171 3 0.41 5.09847 -0.550687 8.56547
512 171 3 0.41 4.98144 0.4613 9.78033
513 171 5 -0.82 4.64968 -0.492567 9.49682
514 172 3 0.41 7.66611 4.73437 18.1339
515 172 3 0.41 6.14137 4.97273 18.5748
516 172 5 -0.82 6.77513 4.99205 17.7619
517 173 3 0.41 0.486227 7.04488 8.88569
518 173 3 0.41 -0.616036 6.18412 7.97818
519 173 5 -0.82 0.368604 6.46375 8.1087
520 174 3 0.41 4.93888 -0.858253 17.9487
521 174 3 0.41 4.56363 11.9584 19.0003
522 174 5 -0.82 4.91185 12.1569 18.0892
523 175 3 0.41 11.598 7.1421 7.62579
524 175 3 0.41 11.7258 6.01192 6.5133
525 175 5 -0.82 11.7952 6.17465 7.5436
526 176 3 0.41 8.04475 5.7394 -5.76641
527 176 3 0.41 7.29531 7.15857 -5.82273
528 176 5 -0.82 7.45592 6.29835 -6.42744
529 177 3 0.41 10.1611 4.52139 11.5189
530 177 3 0.41 9.26653 4.6045 12.8581
531 177 5 -0.82 10.2492 4.55589 12.5411
532 178 3 0.41 1.84438 3.65503 -13.6891
533 178 3 0.41 2.2066 2.97118 -15.1228
534 178 5 -0.82 1.42814 3.08783 -14.4571
535 179 3 0.41 7.05534 -0.73831 -22.1553
536 179 3 0.41 5.8033 -1.18971 -21.1166
537 179 5 -0.82 6.04159 -0.756116 -21.9855
538 180 3 0.41 10.5985 8.23143 -0.616127
539 180 3 0.41 9.60695 9.50243 -0.89886
540 180 5 -0.82 10.4165 8.99711 -1.23476
541 181 3 0.41 0.195313 6.08203 -5.38083
542 181 3 0.41 1.69706 6.6401 -5.65332
543 181 5 -0.82 0.754559 6.63963 -5.98723
544 182 3 0.41 9.13467 9.38209 -12.9006
545 182 3 0.41 10.4321 9.72384 -12.069
546 182 5 -0.82 9.78357 8.93363 -12.1859
547 183 3 0.41 3.52384 8.44755 -16.9062
548 183 3 0.41 4.47146 7.52982 -16.0491
549 183 5 -0.82 4.53218 8.16597 -16.8194
550 184 3 0.41 11.9092 1.87693 11.4083
551 184 3 0.41 -1.33831 1.39427 12.7493
552 184 5 -0.82 12.1911 2.14944 12.3249
553 185 3 0.41 3.1697 10.8733 -16.5797
554 185 3 0.41 3.45804 12.411 -17.0826
555 185 5 -0.82 3.92104 11.4522 -16.8724
556 186 3 0.41 10.6085 10.4479 -9.2963
557 186 3 0.41 9.4137 10.0016 -8.4407
558 186 5 -0.82 9.80968 9.78223 -9.35235
559 187 3 0.41 4.50659 2.55798 0.79319
560 187 3 0.41 4.84034 1.42348 -0.3306
561 187 5 -0.82 4.41195 2.31744 -0.17634
562 188 3 0.41 7.86032 3.14799 -21.7113
563 188 3 0.41 7.52363 1.74551 -21.0573
564 188 5 -0.82 8.21776 2.16293 -21.6556
565 189 3 0.41 3.96133 -0.745645 15.2473
566 189 3 0.41 4.97823 12.251 16.093
567 189 5 -0.82 4.31451 12.3055 15.3217
568 190 3 0.41 0.255066 3.98891 13.6221
569 190 3 0.41 0.96704 5.13785 14.3552
570 190 5 -0.82 0.0738005 4.94057 13.9761
571 191 3 0.41 8.25978 10.6604 20.4639
572 191 3 0.41 9.06289 10.5205 19.1588
573 191 5 -0.82 8.46459 11.1742 19.6556
574 192 3 0.41 7.37685 6.86477 21.629
575 192 3 0.41 7.15376 6.23072 23.1259
576 192 5 -0.82 7.00416 6.04351 22.1469
577 193 3 0.41 5.1528 4.59576 20.0636
578 193 3 0.41 3.83924 5.5274 19.8166
579 193 5 -0.82 4.66044 5.14133 19.3953
580 194 3 0.41 10.673 1.90199 13.0163
581 194 3 0.41 9.11148 1.8588 13.0006
582 194 5 -0.82 9.86444 1.71958 13.6103
583 195 3 0.41 8.59293 8.61245 13.8735
584 195 3 0.41 9.33887 9.9324 14.357
585 195 5 -0.82 9.29686 8.92724 14.5222
586 196 3 0.41 12.4169 12.3704 -22.5619
587 196 3 0.41 11.1189 -0.635915 -22.2957
588 196 5 -0.82 11.4182 12.3939 -22.4356
589 197 3 0.41 0.00874978 0.378252 6.96779
590 197 3 0.41 1.63603 0.682852 7.33133
591 197 5 -0.82 1.0255 0.140093 6.71446
592 198 3 0.41 12.3156 8.25058 -10.4334
593 198 3 0.41 11.4352 8.01377 -9.03161
594 198 5 -0.82 11.8387 7.51713 -9.83821
595 199 3 0.41 2.7236 4.29377 -6.05615
596 199 3 0.41 1.69953 3.02796 -6.12107
597 199 5 -0.82 1.74606 4.04044 -6.10869
598 200 3 0.41 12.0915 -1.46235 8.98728
599 200 3 0.41 10.5516 12.1842 9.33277
600 200 5 -0.82 11.1345 -1.13608 8.8391
601 201 3 0.41 4.32264 12.3138 21.5121
602 201 3 0.41 5.6707 -0.948859 21.2065
603 201 5 -0.82 5.22659 12.1692 21.045
604 202 3 0.41 9.5511 8.71271 -22.0997
605 202 3 0.41 8.01754 8.23703 -21.8183
606 202 5 -0.82 8.88556 7.97318 -22.2372
607 203 3 0.41 0.0237114 10.7482 15.0902
608 203 3 0.41 1.45774 10.9486 15.766
609 203 5 -0.82 0.951703 10.4573 15.0133
610 204 3 0.41 6.56353 11.1513 -13.9847
611 204 3 0.41 5.86358 12.2437 -12.9935
612 204 5 -0.82 6.75955 11.8666 -13.2859
613 205 3 0.41 10.7869 11.0454 -13.5178
614 205 3 0.41 9.73167 10.3647 -14.4514
615 205 5 -0.82 10.3313 11.1927 -14.4091
616 206 3 0.41 1.71498 8.85718 2.85081
617 206 3 0.41 0.688875 7.61967 2.56499
618 206 5 -0.82 1.64639 7.94495 2.40336
619 207 3 0.41 9.73662 2.45465 6.12508
620 207 3 0.41 9.17013 1.91996 7.53829
621 207 5 -0.82 9.64512 1.60814 6.67459
622 208 3 0.41 7.77913 1.3894 -0.519328
623 208 3 0.41 7.56746 2.81627 -1.10547
624 208 5 -0.82 7.8672 1.89102 -1.39493
625 209 3 0.41 -1.29135 11.961 -19.3683
626 209 3 0.41 11.2629 -1.28703 -19.3796
627 209 5 -0.82 12.2948 -1.09788 -19.4274
628 210 3 0.41 6.63232 -0.945763 12.8729
629 210 3 0.41 5.55893 0.2623 12.7019
630 210 5 -0.82 5.83886 -0.632032 12.296
631 211 3 0.41 8.65332 7.67425 9.73671
632 211 3 0.41 7.32514 6.65773 9.71423
633 211 5 -0.82 7.82476 7.44394 9.20942
634 212 3 0.41 5.13753 3.81949 23.1431
635 212 3 0.41 3.89376 4.36088 22.2449
636 212 5 -0.82 4.7543 3.79853 22.2174
637 213 3 0.41 7.01911 0.458057 3.82204
638 213 3 0.41 8.09726 0.101095 4.93254
639 213 5 -0.82 7.55909 -0.305913 4.1958
640 214 3 0.41 -0.6889 2.5503 -4.77848
641 214 3 0.41 12.0478 2.66808 -5.61907
642 214 5 -0.82 -1.25246 3.30569 -5.15818
643 215 3 0.41 1.84613 11.352 -18.9151
644 215 3 0.41 1.99968 9.98463 -19.7985
645 215 5 -0.82 2.20133 10.9845 -19.7986
646 216 3 0.41 0.38513 2.01229 9.48975
647 216 3 0.41 0.969256 3.15911 8.61783
648 216 5 -0.82 0.533741 3.01995 9.54143
649 217 3 0.41 10.1589 12.4312 -15.4712
650 217 3 0.41 9.86868 -0.0653439 -16.0548
651 217 5 -0.82 10.1062 -0.999825 -16.3409
652 218 3 0.41 4.4742 4.76866 6.59317
653 218 3 0.41 2.84203 4.38551 6.16277
654 218 5 -0.82 3.85964 4.38213 5.87309
655 219 3 0.41 9.29739 -0.150349 -13.9446
656 219 3 0.41 7.74664 -0.807471 -13.9535
657 219 5 -0.82 8.38071 -0.175707 -14.4319
658 220 3 0.41 9.43181 8.90494 17.481
659 220 3 0.41 8.1129 8.7157 16.5455
660 220 5 -0.82 8.49728 9.27867 17.2957
661 221 3 0.41 4.29926 9.89065 -19.5176
662 221 3 0.41 4.76349 8.73754 -18.5104
663 221 5 -0.82 4.68974 8.978 -19.4972
664 222 3 0.41 -1.15388 0.555751 -19.4293
665 222 3 0.41 11.9857 1.90351 -19.1321
666 222 5 -0.82 -1.15657 1.57327 -19.6305
667 223 3 0.41 5.44805 -1.43355 -6.44162
668 223 3 0.41 6.80898 12.4283 -5.74788
669 223 5 -0.82 6.39731 -1.03304 -6.46538
670 224 3 0.41 1.80566 11.6733 2.61927
671 224 3 0.41 1.52436 10.772 3.88654
672 224 5 -0.82 1.57714 10.7366 2.84125
673 225 3 0.41 2.28585 2.23275 2.43753
674 225 3 0.41 1.22013 1.9812 1.32997
675 225 5 -0.82 1.48976 1.65401 2.23984
676 226 3 0.41 11.7615 2.16329 18.4484
677 226 3 0.41 -1.36492 2.033 17.3003
678 226 5 -0.82 11.7404 1.64317 17.5829
679 227 3 0.41 0.710352 9.79918 22.7791
680 227 3 0.41 2.14308 9.82205 22.038
681 227 5 -0.82 1.14306 9.72781 21.9096
682 228 3 0.41 5.70769 4.81977 -9.84198
683 228 3 0.41 4.39561 4.91691 -10.7956
684 228 5 -0.82 5.30597 5.28279 -10.6699
685 229 3 0.41 11.8073 9.4942 -22.0995
686 229 3 0.41 11.115 10.923 -22.206
687 229 5 -0.82 10.9011 9.96128 -21.9766
688 230 3 0.41 0.743694 1.93857 4.10741
689 230 3 0.41 1.20766 1.44944 5.52375
690 230 5 -0.82 1.15879 2.28543 4.96289
691 231 3 0.41 1.7734 -0.0409303 -13.8908
692 231 3 0.41 1.94052 1.48396 -14.2867
693 231 5 -0.82 2.32059 0.582014 -14.4784
694 232 3 0.41 1.34534 5.93681 1.287
695 232 3 0.41 2.20321 5.88174 -0.104105
696 232 5 -0.82 1.53419 5.39375 0.454926
697 233 3 0.41 8.18548 6.0969 -1.79798
698 233 3 0.41 7.99497 5.43293 -3.30221
699 233 5 -0.82 7.9143 6.29582 -2.72124
700 234 3 0.41 0.204747 9.41729 8.75891
701 234 3 0.41 -1.26174 9.10474 8.74653
702 234 5 -0.82 -0.578638 9.50979 9.32796
703 235 3 0.41 -1.47294 6.03566 10.7267
704 235 3 0.41 11.8339 7.22953 10.7273
705 235 5 -0.82 -1.18916 6.99789 10.6795
706 236 3 0.41 9.73614 8.66516 -3.0046
707 236 3 0.41 8.92559 7.45107 -3.69123
708 236 5 -0.82 9.59835 8.15587 -3.86492
709 237 3 0.41 9.56691 4.56572 6.73512
710 237 3 0.41 9.38521 3.97335 5.30993
711 237 5 -0.82 10.1203 4.28978 5.93153
712 238 3 0.41 10.0932 0.247493 10.8887
713 238 3 0.41 10.1349 -1.09099 11.7912
714 238 5 -0.82 9.48443 -0.329053 11.4861
715 239 3 0.41 10.4966 12.3879 -3.86152
716 239 3 0.41 11.0092 11.5322 -2.62915
717 239 5 -0.82 10.1305 11.9021 -3.03275
718 240 3 0.41 1.03581 8.93748 -17.3547
719 240 3 0.41 1.76664 7.61708 -16.7382
720 240 5 -0.82 1.9171 8.4508 -17.3154
721 241 3 0.41 6.54409 9.32191 -4.72613
722 241 3 0.41 7.9283 8.54039 -4.41815
723 241 5 -0.82 6.97248 8.38442 -4.70541
724 242 3 0.41 12.2139 7.24963 -3.02889
725 242 3 0.41 -1.24146 8.36203 -2.12117
726 242 5 -0.82 -1.40612 8.18732 -3.1034
727 243 3 0.41 5.70009 5.51309 -12.3821
728 243 3 0.41 6.29132 6.50435 -13.2495
729 243 5 -0.82 6.12473 5.51903 -13.2954
730 244 3 0.41 5.47647 6.66136 21.8951
731 244 3 0.41 4.57652 7.27521 20.5925
732 244 5 -0.82 4.69594 7.2321 21.6088
733 245 3 0.41 6.52126 7.19251 -20.3245
734 245 3 0.41 5.30442 7.6773 -21.1698
735 245 5 -0.82 6.20853 7.2435 -21.2862
736 246 3 0.41 0.903476 10.2095 13.0983
737 246 3 0.41 0.45495 11.5534 12.3326
738 246 5 -0.82 0.672685 10.5692 12.1516
739 247 3 0.41 0.0172591 9.1531 20.771
740 247 3 0.41 -0.477854 7.76542 20.0354
741 247 5 -0.82 -0.447334 8.81187 19.9349
742 248 3 0.41 8.41035 7.28594 7.62845
743 248 3 0.41 9.89594 7.45643 7.04972
744 248 5 -0.82 9.00144 7.13106 6.76335
745 249 3 0.41 2.17151 0.10474 -16.4509
746 249 3 0.41 2.40821 -0.144401 -18.168
747 249 5 -0.82 2.82283 -0.157489 -17.1955
748 250 3 0.41 11.3276 8.95543 22.1566
749 250 3 0.41 10.503 8.16991 23.2679
750 250 5 -0.82 10.7399 8.13093 22.277
751 251 3 0.41 0.470972 7.4393 22.0635
752 251 3 0.41 -0.920584 6.71424 22.5604
753 251 5 -0.82 -0.255188 6.77242 21.8146
754 252 3 0.41 6.51306 5.26202 -18.7522