ITEM: TIMESTEP
80000
ITEM: NUMBER OF ATOMS
1360
ITEM: BOX BOUNDS pp pp pp
-1.5000000000000000e+00 1.2500000000000000e+01
-1.5000000000000000e+00 1.2500000000000000e+01
-2.7500000000000000e+01 2.7500000000000000e+01
ITEM: ATOMS id mol type q x y z
1 1 3 0.41 5.61585 1.16509 7.9059
2 1 3 0.41 5.75949 0.245131 6.76897
3 1 5 -0.82 5.28643 1.11785 6.97394
4 2 3 0.41 1.01064 9.47906 -12.2611
5 2 3 0.41 0.293314 8.15411 -12.8129
6 2 5 -0.82 0.982556 8.85801 -13.0613
7 3 3 0.41 5.72973 0.918729 14.6004
8 3 3 0.41 6.44095 1.58458 15.8622
9 3 5 -0.82 6.43693 0.736124 15.3108
10 4 3 0.41 -1.41744 11.0928 -19.8389
11 4 3 0.41 11.046 11.3919 -20.1176
12 4 5 -0.82 11.8968 10.9691 -20.5534
13 5 3 0.41 11.2166 6.49457 -16.3627
14 5 3 0.41 11.8711 7.02617 -14.8365
15 5 5 -0.82 12.0396 6.74585 -15.8182
16 6 3 0.41 6.94302 -0.603684 -22.4234
17 6 3 0.41 6.33012 12.0286 -22.1625
18 6 5 -0.82 6.02828 -1.04341 -22.4867
19 7 3 0.41 -0.968338 5.8455 -13.1801
20 7 3 0.41 -0.010306 4.93167 -14.1014
21 7 5 -0.82 -0.905528 4.93064 -13.6411
22 8 3 0.41 10.4797 10.1408 18.1753
23 8 3 0.41 11.4129 8.77751 17.698
24 8 5 -0.82 11.3704 9.76183 17.859
25 9 3 0.41 6.08859 1.08144 -19.2137
26 9 3 0.41 7.46377 0.345848 -18.9632
27 9 5 -0.82 7.03249 1.04099 -19.6205
28 10 3 0.41 7.65617 8.86208 9.36085
29 10 3 0.41 7.34616 9.52733 7.90904
30 10 5 -0.82 7.28758 9.63539 8.91914
31 11 3 0.41 -1.32627 11.2239 -9.69953
32 11 3 0.41 -0.647059 11.046 -11.0902
33 11 5 -0.82 -0.620205 10.6384 -10.1557
34 12 3 0.41 11.456 10.5202 -13.1053
35 12 3 0.41 11.737 11.7145 -12.1608
36 12 5 -0.82 12.2696 11.0389 -12.768
37 13 3 0.41 9.72304 2.38465 4.48424
38 13 3 0.41 11.0639 2.3536 5.20619
39 13 5 -0.82 10.4228 3.05678 4.93348
40 14 3 0.41 10.9711 6.01081 -19.8251
41 14 3 0.41 12.4172 6.46429 -19.2949
42 14 5 -0.82 11.967 5.93996 -20.0335
43 15 3 0.41 4.0691 5.71293 1.44627
44 15 3 0.41 2.59941 5.00193 1.52023
45 15 5 -0.82 3.60531 4.80263 1.45817
46 16 3 0.41 11.7247 4.34463 8.65613
47 16 3 0.41 12.1325 3.70149 7.33694
48 16 5 -0.82 11.433 3.53131 8.07962
49 17 3 0.41 2.73252 8.01283 22.5032
50 17 3 0.41 1.50444 7.2593 21.7586
51 17 5 -0.82 2.49694 7.34566 21.7874
52 18 3 0.41 3.63434 -0.244163 -19.4171
53 18 3 0.41 3.36785 1.27518 -19.3555
54 18 5 -0.82 3.09804 0.499092 -19.9339
55 19 3 0.41 4.28113 12.0341 4.68628
56 19 3 0.41 5.49625 -1.3575 5.60188
57 19 5 -0.82 4.89082 -1.11809 4.78806
58 20 3 0.41 0.0925005 5.7359 -19.8681
59 20 3 0.41 1.61238 5.77805 -19.4144
60 20 5 -0.82 0.747058 6.26695 -19.3346
61 21 3 0.41 3.35587 1.68678 16.3803
62 21 3 0.41 4.77489 2.13378 16.9952
63 21 5 -0.82 3.75602 2.23386 17.1182
64 22 3 0.41 4.62152 -0.411057 -17.4716
65 22 3 0.41 5.2378 12.1491 -17.9266
66 22 5 -0.82 4.49486 -1.13386 -18.1805
67 23 3 0.41 9.74697 -0.952565 -18.797
68 23 3 0.41 8.98965 12.4573 -20.1405
69 23 5 -0.82 9.91777 12.4989 -19.6178
70 24 3 0.41 0.645548 3.03741 -19.4308
71 24 3 0.41 1.47493 3.5357 -18.1386
72 24 5 -0.82 1.56295 3.19415 -19.1016
73 25 3 0.41 3.35171 10.802 -15.4665
74 25 3 0.41 4.32575 10.3756 -16.7338
75 25 5 -0.82 3.31884 10.495 -16.4267
76 26 3 0.41 7.28463 0.0492959 -17.0803
77 26 3 0.41 8.70952 -0.734468 -17.0317
78 26 5 -0.82 7.96703 -0.45586 -17.662
79 27 3 0.41 8.2359 11.3318 -9.29661
80 27 3 0.41 8.10461 11.0481 -7.69159
81 27 5 -0.82 7.69261 11.5516 -8.47179
82 28 3 0.41 3.99955 1.23166 -11.1101
83 28 3 0.41 5.1322 2.38236 -11.2433
84 28 5 -0.82 4.99763 1.36267 -11.3534
85 29 3 0.41 1.58969 10.6326 22.6193
86 29 3 0.41 1.9646 11.3128 21.2168
87 29 5 -0.82 2.17012 10.4906 21.7888
88 30 3 0.41 1.55677 1.4389 8.05333
89 30 3 0.41 2.84896 1.87797 8.74597
90 30 5 -0.82 2.43384 1.83049 7.79089
91 31 3 0.41 6.46042 7.28098 -16.5154
92 31 3 0.41 6.04381 8.75433 -15.9662
93 31 5 -0.82 6.62211 8.31638 -16.6917
94 32 3 0.41 -0.177276 9.09526 -14.5019
95 32 3 0.41 0.293178 9.37015 -16.0438
96 32 5 -0.82 -0.519203 9.31555 -15.4325
97 33 3 0.41 1.26631 12.1918 -10.3129
98 33 3 0.41 1.13964 -1.16587 -11.8071
99 33 5 -0.82 1.61164 12.159 -11.2789
100 34 3 0.41 12.4805 7.91909 8.01714
101 34 3 0.41 11.028 8.44927 7.31056
102 34 5 -0.82 11.4636 7.86031 8.02122
103 35 3 0.41 -1.22673 10.6214 17.4486
104 35 3 0.41 0.0591674 9.98232 16.8814
105 35 5 -0.82 -0.495727 10.8652 16.8078
106 36 3 0.41 2.62038 11.3762 -6.30865
107 36 3 0.41 2.84514 -1.05979 -6.38079
108 36 5 -0.82 3.16875 12.1292 -5.85441
109 37 3 0.41 7.94615 7.09239 22.1161
110 37 3 0.41 7.2129 6.14055 23.2092
111 37 5 -0.82 7.64308 6.09861 22.2861
112 38 3 0.41 3.64032 4.84083 -16.7804
113 38 3 0.41 3.36599 3.8979 -17.9949
114 38 5 -0.82 3.1004 4.83414 -17.6472
115 39 3 0.41 7.26141 2.56318 -16.4119
116 39 3 0.41 6.52474 4.07913 -16.4525
117 39 5 -0.82 6.70718 3.20226 -16.9976
118 40 3 0.41 10.3913 -0.150367 -20.6514
119 40 3 0.41 9.96477 1.45795 -20.5049
120 40 5 -0.82 10.3558 0.754559 -21.1585
121 41 3 0.41 3.42132 7.64636 -16.3235
122 41 3 0.41 3.42565 6.44356 -17.3244
123 41 5 -0.82 3.7322 7.37424 -17.2428
124 42 3 0.41 8.6903 3.22717 8.82162
125 42 3 0.41 8.6655 4.65795 8.34641
126 42 5 -0.82 8.05021 3.96998 8.75589
127 43 3 0.41 4.48787 12.4646 20.4143
128 43 3 0.41 5.72636 -1.32742 19.3602
129 43 5 -0.82 4.90448 12.0678 19.5824
130 44 3 0.41 9.31614 9.55667 -20.4165
131 44 3 0.41 7.96627 9.79994 -21.2144
132 44 5 -0.82 8.95085 9.98341 -21.299
133 45 3 0.41 10.232 6.48444 2.85768
134 45 3 0.41 10.6151 8.09674 2.83719
135 45 5 -0.82 9.96195 7.3693 2.45252
136 46 3 0.41 -0.104652 -1.08531 23.2705
137 46 3 0.41 0.404654 -0.487013 21.8816
138 46 5 -0.82 -0.0684377 -1.27106 22.3041
139 47 3 0.41 6.81539 12.1872 8.06186
140 47 3 0.41 7.16915 11.681 6.58137
141 47 5 -0.82 6.5245 12.259 7.08244
142 48 3 0.41 -0.123938 10.5953 10.5991
143 48 3 0.41 0.237147 9.36716 9.54788
144 48 5 -0.82 0.604731 10.2066 10.0127
145 49 3 0.41 6.15681 5.17218 -4.23929
146 49 3 0.41 5.00353 5.26078 -3.10891
147 49 5 -0.82 5.12152 5.39712 -4.1317
148 50 3 0.41 8.77499 4.22107 14.6178
149 50 3 0.41 8.45767 2.69351 14.6288
150 50 5 -0.82 7.99669 3.58568 14.596
151 51 3 0.41 6.69037 3.74932 0.556289
152 51 3 0.41 6.97335 5.05869 -0.346038
153 51 5 -0.82 7.45453 4.42282 0.293399
154 52 3 0.41 12.3926 10.5185 -15.5434
155 52 3 0.41 10.9262 10.9126 -15.2072
156 52 5 -0.82 11.7507 11.2846 -15.6999
157 53 3 0.41 1.98379 10.4504 18.6415
158 53 3 0.41 3.56938 10.8323 18.8924
159 53 5 -0.82 2.92579 10.1324 18.4721
160 54 3 0.41 2.27169 7.94183 9.56552
161 54 3 0.41 3.84221 7.87453 9.00436
162 54 5 -0.82 3.285 7.99536 9.80869
163 55 3 0.41 1.25349 7.39236 0.670381
164 55 3 0.41 0.901574 6.23438 -0.446462
165 55 5 -0.82 1.21866 7.1841 -0.34465
166 56 3 0.41 10.2398 4.77058 1.38628
167 56 3 0.41 9.0716 4.73456 0.278193
168 56 5 -0.82 10.0473 4.467 0.465968
169 57 3 0.41 0.736831 9.47674 -19.7247
170 57 3 0.41 0.849804 7.8567 -19.8686
171 57 5 -0.82 0.75192 8.77191 -20.3889
172 58 3 0.41 3.04251 -0.798802 -13.6215
173 58 3 0.41 1.65997 -0.86648 -14.0995
174 58 5 -0.82 2.44533 -0.248902 -14.1652
175 59 3 0.41 -0.838314 0.325553 -5.37498
176 59 3 0.41 -1.24651 0.859694 -6.85091
177 59 5 -0.82 -0.512688 0.271381 -6.40044
178 60 3 0.41 6.30869 8.38693 -6.82394
179 60 3 0.41 7.46295 7.53685 -5.93089
180 60 5 -0.82 6.64593 7.48883 -6.55841
181 61 3 0.41 2.07116 4.11893 16.1484
182 61 3 0.41 1.3892 2.95863 15.1906
183 61 5 -0.82 1.1988 3.7156 15.8236
184 62 3 0.41 2.5587 2.51634 -10.7529
185 62 3 0.41 3.57868 3.59501 -11.6743
186 62 5 -0.82 2.6252 3.24749 -11.4881
187 63 3 0.41 0.46362 4.96848 16.8467
188 63 3 0.41 -0.110288 5.66633 18.0012
189 63 5 -0.82 -0.00922983 5.83748 17.0264
190 64 3 0.41 -0.376496 8.60052 6.38357
191 64 3 0.41 -0.880931 10.078 5.9657
192 64 5 -0.82 -0.651047 9.16858 5.57827
193 65 3 0.41 9.38726 7.70172 0.583336
194 65 3 0.41 10.4449 8.24661 -0.432027
195 65 5 -0.82 9.43043 8.25871 -0.270512
196 66 3 0.41 -0.242162 0.532857 -1.24368
197 66 3 0.41 -0.885542 -0.933968 -1.20851
198 66 5 -0.82 -0.365777 -0.280808 -0.615378
199 67 3 0.41 0.0363988 11.5689 19.493
200 67 3 0.41 1.30827 -1.43859 19.7673
201 67 5 -0.82 1.02404 11.6286 19.4179
202 68 3 0.41 8.85642 -0.484836 20.1401
203 68 3 0.41 9.74798 0.790324 19.7496
204 68 5 -0.82 9.80579 -0.216743 19.8281
205 69 3 0.41 4.81324 0.126723 -7.80917
206 69 3 0.41 5.0337 0.401246 -9.25761
207 69 5 -0.82 4.98478 -0.406542 -8.68944
208 70 3 0.41 11.7913 4.01553 -2.94339
209 70 3 0.41 12.4485 3.52265 -4.40727
210 70 5 -0.82 11.581 3.7473 -3.9271
211 71 3 0.41 10.2391 4.55663 5.55033
212 71 3 0.41 10.2282 5.39371 6.94023
213 71 5 -0.82 10.3747 5.49576 5.94227
214 72 3 0.41 -0.925362 6.24085 9.42386
215 72 3 0.41 -0.869511 5.22962 10.6979
216 72 5 -0.82 -1.38206 5.42186 9.83896
217 73 3 0.41 -0.0585743 2.68399 -7.64443
218 73 3 0.41 1.25724 2.84688 -8.436
219 73 5 -0.82 0.270427 2.72418 -8.57812
220 74 3 0.41 6.67346 6.72556 8.47944
221 74 3 0.41 8.09124 6.29541 9.18594
222 74 5 -0.82 7.1693 6.64542 9.37399
223 75 3 0.41 7.1431 5.64279 -9.624
224 75 3 0.41 6.12549 4.7314 -8.64689
225 75 5 -0.82 6.27356 5.1312 -9.55658
226 76 3 0.41 -0.191764 2.95329 -10.3136
227 76 3 0.41 0.323964 3.62613 -11.7068
228 76 5 -0.82 -0.293312 2.9862 -11.3115
229 77 3 0.41 2.36801 -0.171571 11.4274
230 77 3 0.41 2.72447 12.378 12.0966
231 77 5 -0.82 2.92063 -0.646858 12.1425
232 78 3 0.41 9.51239 8.12962 -17.0326
233 78 3 0.41 8.27797 8.2951 -16.0183
234 78 5 -0.82 9.28235 7.96087 -16.0467
235 79 3 0.41 1.66096 -1.36441 8.19112
236 79 3 0.41 0.850317 11.4736 8.92186
237 79 5 -0.82 0.79132 12.394 8.62045
238 80 3 0.41 5.36534 -1.01225 -12.0931
239 80 3 0.41 3.89973 -0.728047 -11.6795
240 80 5 -0.82 4.3867 -1.06641 -12.4579
241 81 3 0.41 8.28842 12.0825 1.69234
242 81 3 0.41 9.08016 -0.524973 2.04637
243 81 5 -0.82 8.24542 -1.02228 2.18193
244 82 3 0.41 11.9349 8.83832 10.8085
245 82 3 0.41 -0.715345 7.98247 11.2897
246 82 5 -0.82 12.2595 8.01809 11.2018
247 83 3 0.41 10.1744 10.5213 5.86496
248 83 3 0.41 9.70489 10.2125 7.31915
249 83 5 -0.82 9.88121 9.70493 6.46398
250 84 3 0.41 -0.904701 1.74382 14.4458
251 84 3 0.41 -0.788316 1.2185 12.9162
252 84 5 -0.82 -0.207525 1.3369 13.7946
253 85 3 0.41 4.67804 5.71949 23.0898
254 85 3 0.41 3.69809 6.30733 21.9541
255 85 5 -0.82 4.52114 5.66409 22.0839
256 86 3 0.41 8.74006 4.54218 -12.0596
257 86 3 0.41 8.32 5.85173 -11.3784
258 86 5 -0.82 8.9359 5.05802 -11.2218
259 87 3 0.41 2.30282 3.11134 4.09753
260 87 3 0.41 1.14992 3.50327 5.21968
261 87 5 -0.82 2.15647 3.45087 5.05014
262 88 3 0.41 4.68791 9.14161 22.9818
263 88 3 0.41 3.7445 9.68909 21.6664
264 88 5 -0.82 4.64703 9.34416 21.9759
265 89 3 0.41 0.588042 11.3043 -7.58479
266 89 3 0.41 0.788375 10.7414 -9.05667
267 89 5 -0.82 1.31862 11.0097 -8.2342
268 90 3 0.41 9.71893 4.17298 -14.4085
269 90 3 0.41 11.1522 4.54766 -13.7767
270 90 5 -0.82 10.4274 3.81996 -13.7427
271 91 3 0.41 -0.438262 1.52815 6.73599
272 91 3 0.41 -0.142296 0.0233801 7.29276
273 91 5 -0.82 -0.37328 0.984216 7.52007
274 92 3 0.41 10.3727 4.54071 3.66234
275 92 3 0.41 11.4688 5.50802 3.84615
276 92 5 -0.82 11.0813 5.04816 3.07076
277 93 3 0.41 5.84671 10.5721 19.684
278 93 3 0.41 5.83779 9.75026 20.9336
279 93 5 -0.82 6.51262 9.94281 20.2089
280 94 3 0.41 11.4236 6.34638 -5.42098
281 94 3 0.41 11.1846 4.75627 -5.19571
282 94 5 -0.82 10.8623 5.53104 -5.71953
283 95 3 0.41 0.323788 10.2717 13.88
284 95 3 0.41 0.694128 8.66952 14.202
285 95 5 -0.82 1.08698 9.59998 13.9678
286 96 3 0.41 4.74872 11.7279 9.89813
287 96 3 0.41 5.8766 10.5129 9.51054
288 96 5 -0.82 4.89011 10.6912 9.79716
289 97 3 0.41 6.86292 2.91532 22.6771
290 97 3 0.41 5.45194 3.28278 21.9035
291 97 5 -0.82 6.45793 3.32273 21.8072
292 98 3 0.41 8.76437 10.8739 -16.1889
293 98 3 0.41 9.03987 10.021 -17.4825
294 98 5 -0.82 8.44251 10.7363 -17.1254
295 99 3 0.41 4.22937 7.47116 13.4291
296 99 3 0.41 2.9352 8.06291 14.0168
297 99 5 -0.82 3.33764 7.857 13.1298
298 100 3 0.41 1.40863 -0.314286 5.33323
299 100 3 0.41 1.04016 12.3741 6.09227
300 100 5 -0.82 0.631023 -0.831785 5.69035
301 101 3 0.41 4.88262 10.7961 -0.785512
302 101 3 0.41 6.31995 10.6713 -1.57209
303 101 5 -0.82 5.80463 10.3683 -0.751403
304 102 3 0.41 4.3148 -0.993901 -22.4086
305 102 3 0.41 3.25268 -1.21269 -21.2842
306 102 5 -0.82 3.32978 -1.21972 -22.2755
307 103 3 0.41 -0.552833 11.3645 3.09149
308 103 3 0.41 -0.110259 12.1209 4.37422
309 103 5 -0.82 -0.957112 11.9308 3.85195
310 104 3 0.41 5.46134 -1.04695 0.429649
311 104 3 0.41 6.29914 -0.151933 -0.633282
312 104 5 -0.82 5.39467 -0.193822 -0.148352
313 105 3 0.41 10.1489 1.40601 13.0949
314 105 3 0.41 10.2921 0.756295 14.5417
315 105 5 -0.82 9.66438 1.34831 13.983
316 106 3 0.41 10.3795 7.87931 -8.06209
317 106 3 0.41 10.8533 6.51371 -7.27169
318 106 5 -0.82 10.5721 6.87466 -8.20337
319 107 3 0.41 -0.987384 2.73237 3.69903
320 107 3 0.41 12.328 4.16331 3.0864
321 107 5 -0.82 -0.854741 3.59929 3.08416
322 108 3 0.41 -1.42246 0.50869 -17.5933
323 108 3 0.41 11.9145 -0.333175 -18.6803
324 108 5 -0.82 11.9324 0.630808 -18.4172
325 109 3 0.41 9.02657 11.5889 -22.131
326 109 3 0.41 9.82393 -1.09498 -22.4822
327 109 5 -0.82 8.88536 -1.40842 -22.4548
328 110 3 0.41 -1.07441 -0.514078 -3.50858
329 110 3 0.41 11.9968 0.876668 -3.35119
330 110 5 -0.82 -1.30218 0.418449 -3.96368
331 111 3 0.41 11.1157 4.2756 -0.999012
332 111 3 0.41 12.0872 3.03877 -0.63094
333 111 5 -0.82 11.9128 3.81592 -1.30172
334 112 3 0.41 8.36514 5.42314 -16.1454
335 112 3 0.41 9.29874 4.25303 -16.5703
336 112 5 -0.82 9.07791 4.86058 -15.7722
337 113 3 0.41 -0.535098 -0.0468513 18.6783
338 113 3 0.41 -1.16746 1.19041 19.5691
339 113 5 -0.82 -1.02767 0.180126 19.5296
340 114 3 0.41 3.39552 8.08714 -20.0961
341 114 3 0.41 3.9152 8.14072 -18.5634
342 114 5 -0.82 4.08186 8.48967 -19.5218
343 115 3 0.41 8.39047 4.2338 -3.86943
344 115 3 0.41 8.13474 5.67197 -3.8914
345 115 5 -0.82 7.80623 4.86408 -4.39185
346 116 3 0.41 5.08492 12.4029 15.823
347 116 3 0.41 5.93607 -0.408693 16.4117
348 116 5 -0.82 5.35935 -1.19781 16.7168
349 117 3 0.41 12.1301 4.90943 -16.1675
350 117 3 0.41 11.4732 3.4619 -16.56
351 117 5 -0.82 12.1645 4.14527 -16.8213
352 118 3 0.41 9.45305 -0.946076 -1.22254
353 118 3 0.41 10.6607 12.1338 -1.74703
354 118 5 -0.82 10.0747 12.2811 -0.939552
355 119 3 0.41 2.81503 11.2285 -8.95129
356 119 3 0.41 4.18058 12.0252 -9.20146
357 119 5 -0.82 3.77795 11.0491 -9.17651
358 120 3 0.41 5.05707 4.51017 13.654
359 120 3 0.41 6.02013 3.87689 14.8515
360 120 5 -0.82 5.05838 4.01058 14.5266
361 121 3 0.41 4.00459 7.55499 -10.7672
362 121 3 0.41 2.80436 7.97967 -11.7014
363 121 5 -0.82 3.50766 7.23418 -11.6339
364 122 3 0.41 7.03895 7.51265 13.6901
365 122 3 0.41 8.1675 8.54243 13.3553
366 122 5 -0.82 7.81053 7.64556 13.0523
367 123 3 0.41 11.0721 1.33782 -1.02756
368 123 3 0.41 9.86925 0.870461 -2.0894
369 123 5 -0.82 10.8689 1.04892 -2.00514
370 124 3 0.41 5.94669 11.1625 0.708699
371 124 3 0.41 5.34255 10.9101 2.16849
372 124 5 -0.82 5.76692 11.6575 1.59396
373 125 3 0.41 4.51488 1.23476 -21.3523
374 125 3 0.41 4.24235 2.85672 -21.3787
375 125 5 -0.82 4.68928 2.08927 -21.8503
376 126 3 0.41 6.67703 1.06215 -12.238
377 126 3 0.41 8.11048 1.48034 -11.4347
378 126 5 -0.82 7.62311 1.38905 -12.3113
379 127 3 0.41 11.371 10.9999 11.1263
380 127 3 0.41 10.9939 11.2728 9.57099
381 127 5 -0.82 11.5827 10.6682 10.1929
382 128 3 0.41 4.06519 8.27742 7.01989
383 128 3 0.41 5.14991 7.03417 6.73729
384 128 5 -0.82 4.40355 7.34734 7.35177
385 129 3 0.41 10.3465 6.25688 12.7258
386 129 3 0.41 11.3131 6.60143 11.5252
387 129 5 -0.82 10.3708 6.34745 11.666
388 130 3 0.41 9.08734 -0.184389 -6.81185
389 130 3 0.41 10.5901 0.0900887 -6.74348
390 130 5 -0.82 9.93707 -0.629667 -7.04196
391 131 3 0.41 4.14161 10.1288 -19.8693
392 131 3 0.41 4.12724 11.6679 -19.3416
393 131 5 -0.82 3.99114 11.0883 -20.175
394 132 3 0.41 5.83964 1.82734 1.65377
395 132 3 0.41 5.37197 1.6426 0.0798869
396 132 5 -0.82 5.59186 2.33049 0.759337
397 133 3 0.41 -0.321002 0.777447 3.63754
398 133 3 0.41 -1.29973 0.775249 4.88495
399 133 5 -0.82 -0.70397 1.38329 4.3639
400 134 3 0.41 3.96208 7.89091 1.21756
401 134 3 0.41 4.30305 7.62468 -0.301343
402 134 5 -0.82 4.45849 7.28602 0.615674
403 135 3 0.41 3.00065 3.9915 -19.821
404 135 3 0.41 4.28278 4.70891 -19.8638
405 135 5 -0.82 3.63909 4.31144 -20.5357
406 136 3 0.41 8.43491 -0.218949 13.5523
407 136 3 0.41 7.26892 -0.999972 12.9347
408 136 5 -0.82 8.08797 -1.13888 13.5568
409 137 3 0.41 7.81501 12.395 3.72299
410 137 3 0.41 8.88404 11.8158 4.8637
411 137 5 -0.82 7.9375 12.0502 4.72056
412 138 3 0.41 11.9251 11.363 7.51147
413 138 3 0.41 -0.526465 11.7084 7.78127
414 138 5 -0.82 -1.13496 11.2277 7.11006
415 139 3 0.41 1.12044 3.52712 21.8365
416 139 3 0.41 1.24768 4.8773 22.8926
417 139 5 -0.82 1.45846 4.47707 21.9319
418 140 3 0.41 2.6316 9.79452 -10.0041
419 140 3 0.41 1.46483 8.82726 -9.46438
420 140 5 -0.82 1.929 9.09944 -10.3276
421 141 3 0.41 5.33648 10.5264 -21.3465
422 141 3 0.41 5.89984 9.32925 -22.0272
423 141 5 -0.82 6.15824 10.2548 -21.9023
424 142 3 0.41 2.01343 7.01739 -15.3342
425 142 3 0.41 2.11366 7.88826 -14.0067
426 142 5 -0.82 2.62586 7.58229 -14.8099
427 143 3 0.41 7.25865 10.1451 15.5155
428 143 3 0.41 6.58615 9.66169 14.1539
429 143 5 -0.82 7.48496 9.66761 14.6161
430 144 3 0.41 6.82394 10.6724 -17.1479
431 144 3 0.41 6.18454 11.7399 -16.0124
432 144 5 -0.82 5.93506 11.0749 -16.7837
433 145 3 0.41 -1.35291 11.4243 -17.2545
434 145 3 0.41 0.134104 11.0108 -17.7707
435 145 5 -0.82 -0.813542 11.2184 -18.082
436 146 3 0.41 1.46242 1.721 -17.5013
437 146 3 0.41 0.81601 0.388611 -16.7449
438 146 5 -0.82 1.6488 0.740579 -17.2858
439 147 3 0.41 8.93074 9.69666 0.391017
440 147 3 0.41 9.25447 11.2577 0.263021
441 147 5 -0.82 8.66675 10.6214 0.771296
442 148 3 0.41 2.88193 -0.398786 18.7476
443 148 3 0.41 3.92295 -0.66329 17.4388
444 148 5 -0.82 2.95585 -0.578816 17.7515
445 149 3 0.41 12.1252 7.59868 -3.80546
446 149 3 0.41 -1.07466 6.32522 -3.06049
447 149 5 -0.82 12.1347 6.99191 -2.97162
448 150 3 0.41 1.13387 3.28111 -15.6251
449 150 3 0.41 -0.221455 3.41625 -16.5567
450 150 5 -0.82 0.780641 3.49291 -16.5273
451 151 3 0.41 4.08399 1.32226 13.0631
452 151 3 0.41 4.98757 2.53673 13.588
453 151 5 -0.82 5.01832 1.56499 13.2813
454 152 3 0.41 7.73507 6.39826 6.15615
455 152 3 0.41 6.76984 5.04345 6.1103
456 152 5 -0.82 7.03577 5.88541 6.62752
457 153 3 0.41 9.66705 12.1366 15.8853
458 153 3 0.41 10.8946 11.0695 15.7018
459 153 5 -0.82 9.9409 11.2406 15.3891
460 154 3 0.41 5.02423 7.04122 -21.8786
461 154 3 0.41 6.61721 7.15809 -22.1494
462 154 5 -0.82 5.70763 7.60854 -22.3892
463 155 3 0.41 9.52354 6.58145 19.3444
464 155 3 0.41 10.4812 6.36319 20.6636
465 155 5 -0.82 10.3572 6.12931 19.6545
466 156 3 0.41 -0.869061 5.52857 0.859086
467 156 3 0.41 12.1074 5.66796 1.94899
468 156 5 -0.82 -1.43502 6.1969 1.25516
469 157 3 0.41 7.16023 -1.42541 21.2293
470 157 3 0.41 7.53577 11.0485 21.0644
471 157 5 -0.82 7.965 11.9428 21.342
472 158 3 0.41 4.62285 9.86802 -4.44406
473 158 3 0.41 5.58395 9.87433 -5.72057
474 158 5 -0.82 4.79404 9.42738 -5.35114
475 159 3 0.41 5.85262 10.1951 -10.5918
476 159 3 0.41 6.46344 11.3484 -11.5367
477 159 5 -0.82 6.25246 10.3627 -11.5214
478 160 3 0.41 1.93148 5.39773 10.9529
479 160 3 0.41 2.43781 4.69176 9.59217
480 160 5 -0.82 2.52355 4.65089 10.5957
481 161 3 0.41 4.39089 -0.583416 -2.33296
482 161 3 0.41 5.72469 -0.446719 -3.06287
483 161 5 -0.82 4.85944 -0.986565 -3.15297
484 162 3 0.41 1.53858 5.79689 -5.5044
485 162 3 0.41 2.27524 6.4783 -6.74781
486 162 5 -0.82 1.38553 6.02011 -6.53363
487 163 3 0.41 7.50221 -0.838904 -10.8048
488 163 3 0.41 6.16002 -1.13039 -10.0298
489 163 5 -0.82 6.49282 -1.01769 -10.9667
490 164 3 0.41 9.31746 -0.740911 -3.97252
491 164 3 0.41 10.6016 12.2896 -3.904
492 164 5 -0.82 9.61623 12.3535 -4.24156
493 165 3 0.41 2.60502 5.99445 19.1955
494 165 3 0.41 1.994 5.03666 20.4038
495 165 5 -0.82 2.57826 4.99873 19.5731
496 166 3 0.41 8.63772 8.49703 15.3656
497 166 3 0.41 9.76095 7.3816 15.2434
498 166 5 -0.82 9.24444 7.93909 15.8831
499 167 3 0.41 8.82002 8.64132 -11.4208
500 167 3 0.41 8.08382 7.58501 -10.4882
501 167 5 -0.82 8.35489 7.76902 -11.4298
502 168 3 0.41 11.2807 11.9373 -7.8265
503 168 3 0.41 12.4908 11.3751 -7.07125
504 168 5 -0.82 12.258 11.6871 -7.98342
505 169 3 0.41 12.3933 -0.381632 2.3153
506 169 3 0.41 11.4779 -1.43168 1.59066
507 169 5 -0.82 11.4256 -0.492207 1.95506
508 170 3 0.41 7.60682 3.08997 -13.205
509 170 3 0.41 7.80893 4.22324 -14.2946
510 170 5 -0.82 7.4348 4.10683 -13.3799
511 171 3 0.41 11.9068 -0.673321 15.6218
512 171 3 0.41 -1.19973 0.0959553 14.4447
513 171 5 -0.82 11.8846 -0.286948 14.6954
514 172 3 0.41 8.49007 11.4639 19.5638
515 172 3 0.41 9.78096 11.9852 18.6785
516 172 5 -0.82 9.11105 11.2258 18.7465
517 173 3 0.41 9.45272 1.17072 7.89651
518 173 3 0.41 10.2711 2.38597 8.63676
519 173 5 -0.82 9.58455 1.61998 8.79068
520 174 3 0.41 8.56508 2.21432 19.5453
521 174 3 0.41 7.21846 2.8832 19.8284
522 174 5 -0.82 7.56278 2.04962 19.3353
523 175 3 0.41 7.74959 2.39946 5.82959
524 175 3 0.41 7.27115 3.32153 7.0735
525 175 5 -0.82 7.35949 3.31062 6.05062
526 176 3 0.41 5.29387 5.66929 -1.1895
527 176 3 0.41 6.53598 6.78059 -1.83912
528 176 5 -0.82 6.27824 5.85917 -1.38486
529 177 3 0.41 5.40735 0.075538 3.14953
530 177 3 0.41 6.90554 -0.0282964 2.57029
531 177 5 -0.82 6.16074 0.638474 2.88143
532 178 3 0.41 8.4252 2.14255 -19.2087
533 178 3 0.41 9.65749 3.26022 -19.3682
534 178 5 -0.82 9.41905 2.29573 -19.0924
535 179 3 0.41 1.51284 2.91916 -22.1699
536 179 3 0.41 2.47584 4.16425 -21.6295
537 179 5 -0.82 1.63167 3.91188 -22.2214
538 180 3 0.41 6.94826 8.81131 5.55147
539 180 3 0.41 5.78155 9.66907 6.32284
540 180 5 -0.82 6.79342 9.45695 6.28051
541 181 3 0.41 11.2478 -0.181361 -12.6411
542 181 3 0.41 11.9817 0.732711 -13.8972
543 181 5 -0.82 11.3855 -0.0712917 -13.6625
544 182 3 0.41 -0.632391 0.513073 -20.9951
545 182 3 0.41 12.4278 1.69678 -21.5855
546 182 5 -0.82 -0.907233 0.997394 -21.8625
547 183 3 0.41 8.31699 -0.252773 -12.6029
548 183 3 0.41 8.58267 12.1728 -12.2675
549 183 5 -0.82 8.50645 -1.16416 -13.038
550 184 3 0.41 3.66866 -0.892646 6.77456
551 184 3 0.41 3.86293 -1.00701 8.33964
552 184 5 -0.82 3.28115 -1.31107 7.59645
553 185 3 0.41 4.31022 8.07693 -14.5271
554 185 3 0.41 4.23281 9.60243 -14.2741
555 185 5 -0.82 4.90797 8.88434 -14.5325
556 186 3 0.41 5.34648 4.23722 2.13674
557 186 3 0.41 5.49537 5.10866 3.54695
558 186 5 -0.82 6.03094 4.72991 2.77128
559 187 3 0.41 1.31006 5.73392 4.03773
560 187 3 0.41 0.510605 4.87001 2.9457
561 187 5 -0.82 1.31155 5.4663 3.06163
562 188 3 0.41 12.2355 9.63438 -21.5432
563 188 3 0.41 -0.588836 8.65938 -21.782
564 188 5 -0.82 -1.47971 8.87457 -22.1571
565 189 3 0.41 10.8047 0.131919 17.4379
566 189 3 0.41 11.767 -0.924872 18.1307
567 189 5 -0.82 11.2826 -0.735127 17.256
568 190 3 0.41 12.1209 3.40007 17.4326
569 190 3 0.41 11.817 3.81947 15.987
570 190 5 -0.82 11.378 3.89261 16.8871
571 191 3 0.41 0.302565 -0.960884 11.2388
572 191 3 0.41 -1.19563 -1.38577 10.9663
573 191 5 -0.82 -0.412947 12.3754 11.5385
574 192 3 0.41 7.58585 8.30043 18.4356
575 192 3 0.41 8.66351 7.77243 17.3448
576 192 5 -0.82 8.33648 7.64505 18.293
577 193 3 0.41 6.36586 10.5371 12.2488
578 193 3 0.41 5.27886 11.342 13.085
579 193 5 -0.82 5.51669 10.3666 12.789
580 194 3 0.41 0.124354 2.56432 17.0435
581 194 3 0.41 -0.159226 1.00024 16.7079
582 194 5 -0.82 -0.588952 1.92523 16.6136
583 195 3 0.41 3.55944 6.02476 4.84073
584 195 3 0.41 4.25634 4.54942 4.82045
585 195 5 -0.82 4.41489 5.55775 4.74114
586 196 3 0.41 12.1044 3.66849 -21.0066
587 196 3 0.41 10.8735 3.98896 -21.9494
588 196 5 -0.82 11.8193 3.6822 -21.9931
589 197 3 0.41 11.7797 10.2729 0.222103
590 197 3 0.41 11.7379 10.1054 1.8862
591 197 5 -0.82 11.7972 10.7728 1.12846
592 198 3 0.41 -0.389459 2.43564 -13.8912
593 198 3 0.41 12.0184 2.87302 -14.0077
594 198 5 -0.82 -1.31105 2.23057 -14.2761
595 199 3 0.41 4.04041 11.54 -13.1094
596 199 3 0.41 2.56804 10.8246 -13.1976
597 199 5 -0.82 3.50508 10.7899 -13.5456
598 200 3 0.41 9.0933 6.99912 -1.84946
599 200 3 0.41 10.3798 6.44617 -2.70381
600 200 5 -0.82 9.42706 6.27921 -2.47804
601 201 3 0.41 7.14504 3.64332 11.8024
602 201 3 0.41 6.43678 2.14534 12.3998
603 201 5 -0.82 7.17457 2.60065 11.8033
604 202 3 0.41 5.70206 7.04626 -9.38938
605 202 3 0.41 5.55533 8.58032 -8.89019
606 202 5 -0.82 5.14601 7.87483 -9.56702
607 203 3 0.41 2.21648 10.4388 4.52432
608 203 3 0.41 1.03571 9.9007 5.44256
609 203 5 -0.82 1.83917 10.5544 5.47024
610 204 3 0.41 0.38224 -1.24762 -18.9668
611 204 3 0.41 1.06684 -0.0246851 -19.3936
612 204 5 -0.82 0.336296 -0.611024 -19.7515
613 205 3 0.41 10.3333 3.47467 -7.56633
614 205 3 0.41 10.2625 4.81052 -8.45945
615 205 5 -0.82 9.71731 4.01802 -8.15506
616 206 3 0.41 3.71563 4.19455 17.115
617 206 3 0.41 4.03449 4.63505 15.6725
618 206 5 -0.82 3.54587 4.94101 16.5074
619 207 3 0.41 1.74446 -0.188508 -1.03437
620 207 3 0.41 3.04041 0.746796 -0.991841
621 207 5 -0.82 2.67635 -0.182594 -1.39008
622 208 3 0.41 -1.14898 11.2671 12.7899
623 208 3 0.41 12.0478 11.714 13.8654
624 208 5 -0.82 -1.41681 10.874 13.6779
625 209 3 0.41 2.34667 6.24107 -12.803
626 209 3 0.41 2.09349 4.73521 -12.1943
627 209 5 -0.82 1.74227 5.47224 -12.8094
628 210 3 0.41 4.04471 5.20535 11.2984
629 210 3 0.41 4.7595 6.54997 12.0519
630 210 5 -0.82 4.66431 5.52158 12.0663
631 211 3 0.41 8.38613 -0.256048 6.51936
632 211 3 0.41 9.11278 0.513067 5.53271
633 211 5 -0.82 8.38278 0.685748 6.23155
634 212 3 0.41 3.7266 -1.27162 13.76
635 212 3 0.41 3.79095 11.3313 14.6213
636 212 5 -0.82 4.30362 12.1777 14.4135
637 213 3 0.41 -0.235121 1.79763 -2.85463
638 213 3 0.41 0.535869 2.94427 -2.13413
639 213 5 -0.82 0.291971 1.98033 -1.99131
640 214 3 0.41 5.40851 6.54091 -18.751
641 214 3 0.41 6.69164 5.71786 -19.2485
642 214 5 -0.82 5.68525 5.82113 -19.3602
643 215 3 0.41 7.52612 11.7803 -2.77832
644 215 3 0.41 8.2026 10.3319 -2.9986
645 215 5 -0.82 7.29866 10.8241 -2.99504
646 216 3 0.41 3.97809 10.2677 7.74093
647 216 3 0.41 3.21359 10.4319 6.39196
648 216 5 -0.82 3.95334 9.88105 6.82115
649 217 3 0.41 5.53831 4.40926 -10.7389
650 217 3 0.41 5.79091 4.39469 -12.2819
651 217 5 -0.82 5.08646 4.11911 -11.5988
652 218 3 0.41 5.48626 7.67813 15.6145
653 218 3 0.41 5.80414 6.16682 15.2252
654 218 5 -0.82 5.63436 7.08725 14.7932
655 219 3 0.41 1.39606 0.740067 -4.50682
656 219 3 0.41 2.38193 1.62449 -3.79326
657 219 5 -0.82 1.95386 1.51613 -4.71404
658 220 3 0.41 -0.920018 3.7019 19.8612
659 220 3 0.41 -0.136615 2.54264 18.9773
660 220 5 -0.82 -1.06063 2.91539 19.3235
661 221 3 0.41 8.05598 3.1556 -9.68921
662 221 3 0.41 6.86916 2.17592 -9.57528
663 221 5 -0.82 7.86426 2.22631 -9.85795
664 222 3 0.41 11.7478 11.9834 -22.0635
665 222 3 0.41 11.8824 -0.430108 -22.365
666 222 5 -0.82 11.5482 -1.27167 -22.7369
667 223 3 0.41 0.855915 11.0204 -14.1631
668 223 3 0.41 -0.366146 11.8116 -13.5083
669 223 5 -0.82 0.466522 11.9286 -14.0796
670 224 3 0.41 11.5575 -0.443699 9.13749
671 224 3 0.41 -1.08627 0.220837 8.70432
672 224 5 -0.82 12.3359 0.0320954 9.54303
673 225 3 0.41 3.52032 9.26831 -1.66049
674 225 3 0.41 4.68767 8.24724 -2.17154
675 225 5 -0.82 3.73844 8.24969 -1.7295
676 226 3 0.41 6.15665 9.26249 17.1994
677 226 3 0.41 4.9585 8.37441 17.8603
678 226 5 -0.82 5.75701 8.29965 17.2737
679 227 3 0.41 3.05395 7.62251 20.233
680 227 3 0.41 3.11337 8.6338 19.003
681 227 5 -0.82 3.31806 7.64538 19.2366
682 228 3 0.41 1.8003 1.49599 -14.0465
683 228 3 0.41 1.84451 2.88878 -13.1393
684 228 5 -0.82 1.61105 2.45995 -14.0632
685 229 3 0.41 0.86066 5.17374 -22.1197
686 229 3 0.41 -0.528105 6.06522 -21.7592
687 229 5 -0.82 0.410278 6.08627 -22.1696
688 230 3 0.41 4.16045 4.38277 -5.12644
689 230 3 0.41 3.12684 3.06721 -5.42021
690 230 5 -0.82 3.56485 3.96481 -5.78518
691 231 3 0.41 1.16644 8.88022 -3.92975
692 231 3 0.41 0.107591 9.32145 -2.74878
693 231 5 -0.82 0.797707 8.59982 -2.97059
694 232 3 0.41 11.3124 1.77416 -8.27636
695 232 3 0.41 11.4468 2.13081 -9.78294
696 232 5 -0.82 11.715 1.38259 -9.17497
697 233 3 0.41 3.58805 8.01292 -4.81739
698 233 3 0.41 4.05131 6.63034 -4.29214
699 233 5 -0.82 3.17389 7.22922 -4.28593
700 234 3 0.41 2.76857 11.9324 -0.66958
701 234 3 0.41 1.96396 10.5804 -0.998466
702 234 5 -0.82 2.92945 10.9533 -0.910532
703 235 3 0.41 9.51897 7.72562 11.124
704 235 3 0.41 9.96635 8.2392 9.75455
705 235 5 -0.82 9.40246 8.52363 10.5275
706 236 3 0.41 6.02088 2.7947 4.39578
707 236 3 0.41 4.51855 2.63203 3.61142
708 236 5 -0.82 5.01416 2.93308 4.47347
709 237 3 0.41 7.88368 10.7866 10.7129
710 237 3 0.41 8.64218 9.72523 11.406
711 237 5 -0.82 8.14894 10.5884 11.7026
712 238 3 0.41 2.26471 8.08434 4.86439
713 238 3 0.41 1.76447 7.14683 6.08628
714 238 5 -0.82 2.11158 7.13725 5.1251
715 239 3 0.41 3.79222 -0.0837289 4.79717
716 239 3 0.41 3.03167 1.13575 4.19116
717 239 5 -0.82 3.09713 0.58426 5.07823
718 240 3 0.41 4.86537 2.54249 -2.868
719 240 3 0.41 3.68584 2.37021 -1.87239
720 240 5 -0.82 3.83591 2.36466 -2.88999
721 241 3 0.41 8.48937 2.55389 0.268039
722 241 3 0.41 8.5479 0.957973 0.0634559
723 241 5 -0.82 8.84842 1.6855 0.654992
724 242 3 0.41 11.1532 -0.457222 4.64226
725 242 3 0.41 10.887 -0.492631 6.23845
726 242 5 -0.82 10.8845 0.124734 5.42309
727 243 3 0.41 -0.627034 0.713852 -15.2324
728 243 3 0.41 -1.00403 -0.720909 -15.7242
729 243 5 -0.82 -0.72325 0.157661 -16.0797
730 244 3 0.41 -0.362523 6.97016 23.1678
731 244 3 0.41 -1.36934 7.24452 22.035
732 244 5 -0.82 -0.448357 6.80741 22.163
733 245 3 0.41 5.88984 4.71527 -20.8839
734 245 3 0.41 5.88045 3.37494 -21.7032
735 245 5 -0.82 6.38237 4.21072 -21.633
736 246 3 0.41 10.6026 7.10477 23.3132
737 246 3 0.41 9.6783 7.71612 22.1332
738 246 5 -0.82 10.4967 7.1159 22.2813
739 247 3 0.41 7.85536 10.8273 17.6901
740 247 3 0.41 6.44758 11.4036 16.8306
741 247 5 -0.82 7.03537 10.5578 17.1067
742 248 3 0.41 6.0901 7.45039 10.377
743 248 3 0.41 6.69782 8.13803 11.739
744 248 5 -0.82 5.84646 8.0992 11.1659
745 249 3 0.41 2.69422 0.423526 -9.29523
746 249 3 0.41 1.59183 0.310492 -10.5627
747 249 5 -0.82 2.51701 0.603305 -10.3025
748 250 3 0.41 8.87008 3.56628 22.2274
749 250 3 0.41 9.12954 5.08504 22.1109
750 250 5 -0.82 9.57733 4.15391 21.8947
751 251 3 0.41 11.3092 2.01697 11.7357
752 251 3 0.41 12.1871 0.800281 10.9815