ITEM: TIMESTEP
50000
ITEM: NUMBER OF ATOMS
1360
ITEM: BOX BOUNDS pp pp pp
-1.5000000000000000e+00 1.2500000000000000e+01
-1.5000000000000000e+00 1.2500000000000000e+01
-2.7500000000000000e+01 2.7500000000000000e+01
ITEM: ATOMS id mol type q x y z
1 1 3 0.41 -1.04716 -1.44811 5.23948
2 1 3 0.41 -0.690751 12.4648 3.66137
3 1 5 -0.82 -0.538348 -0.964045 4.51827
4 2 3 0.41 3.9509 7.53626 -16.9953
5 2 3 0.41 2.52212 7.3709 -16.2764
6 2 5 -0.82 2.9407 7.58877 -17.1878
7 3 3 0.41 10.47 1.97282 13.3419
8 3 3 0.41 11.4606 0.678616 12.9458
9 3 5 -0.82 10.9655 1.49481 12.6161
10 4 3 0.41 -0.877246 11.67 -19.7123
11 4 3 0.41 0.634268 11.205 -19.2849
12 4 5 -0.82 -0.021382 11.3486 -20.085
13 5 3 0.41 5.48867 6.4756 -13.8925
14 5 3 0.41 4.66882 5.05105 -13.607
15 5 5 -0.82 5.35103 5.53026 -14.2125
16 6 3 0.41 6.15228 -1.32182 -21.3758
17 6 3 0.41 7.41174 12.3456 -22.353
18 6 5 -0.82 6.45195 -1.33023 -22.3444
19 7 3 0.41 1.40865 9.71687 -14.6979
20 7 3 0.41 2.58526 9.96918 -15.9369
21 7 5 -0.82 1.61312 10.1748 -15.6036
22 8 3 0.41 10.7669 0.565374 16.3613
23 8 3 0.41 11.4256 1.76116 15.7819
24 8 5 -0.82 10.6695 1.57785 16.4578
25 9 3 0.41 11.1964 3.564 -19.8189
26 9 3 0.41 12.4868 4.45731 -19.4818
27 9 5 -0.82 12.2039 3.51611 -19.7717
28 10 3 0.41 11.2541 6.82252 6.80819
29 10 3 0.41 12.1346 7.46403 8.00005
30 10 5 -0.82 11.1599 7.20177 7.73625
31 11 3 0.41 1.39692 9.7017 -9.32481
32 11 3 0.41 1.07586 8.66765 -10.5811
33 11 5 -0.82 1.47983 9.53798 -10.3461
34 12 3 0.41 5.33219 -0.0914568 -11.6492
35 12 3 0.41 5.39063 12.2727 -11.942
36 12 5 -0.82 4.77661 -0.887871 -11.84
37 13 3 0.41 5.30735 9.96443 6.21722
38 13 3 0.41 6.56025 8.87685 6.12751
39 13 5 -0.82 5.72902 9.16163 6.66638
40 14 3 0.41 11.3728 5.54102 -18.2212
41 14 3 0.41 10.1862 6.28166 -19.1781
42 14 5 -0.82 11.2206 6.10529 -19.0379
43 15 3 0.41 2.17961 5.40966 0.473357
44 15 3 0.41 0.560164 5.70741 0.871412
45 15 5 -0.82 1.44655 5.26462 1.16069
46 16 3 0.41 11.0584 3.79117 10.1251
47 16 3 0.41 9.77369 3.97887 9.22283
48 16 5 -0.82 10.7706 3.8454 9.14772
49 17 3 0.41 5.89759 11.6243 23.144
50 17 3 0.41 4.73292 11.4393 22.0385
51 17 5 -0.82 5.73271 11.7044 22.1532
52 18 3 0.41 3.34468 -0.860447 -21.5254
53 18 3 0.41 4.13202 11.7954 -22.0395
54 18 5 -0.82 3.61198 -1.37352 -22.3507
55 19 3 0.41 1.29123 6.22329 7.30709
56 19 3 0.41 0.0577889 5.2879 7.50738
57 19 5 -0.82 0.28312 6.27992 7.36503
58 20 3 0.41 3.084 9.97067 -13.1685
59 20 3 0.41 2.07695 10.2496 -11.9134
60 20 5 -0.82 2.22154 10.4781 -12.8777
61 21 3 0.41 8.57844 -0.0465949 20.4941
62 21 3 0.41 8.48257 -1.44786 19.9096
63 21 5 -0.82 8.83617 -0.515119 19.6434
64 22 3 0.41 4.99003 -0.821892 -19.265
65 22 3 0.41 5.4675 11.6509 -19.3851
66 22 5 -0.82 5.61817 -1.43761 -19.7939
67 23 3 0.41 11.2396 -1.41651 -15.5707
68 23 3 0.41 10.0675 12.2707 -16.6624
69 23 5 -0.82 11.1123 12.2232 -16.506
70 24 3 0.41 3.76113 9.8749 -18.7513
71 24 3 0.41 4.82555 10.4044 -17.7287
72 24 5 -0.82 4.68462 10.2458 -18.7194
73 25 3 0.41 8.342 5.80408 -14.3443
74 25 3 0.41 9.42245 6.25941 -15.5553
75 25 5 -0.82 8.6023 5.73126 -15.329
76 26 3 0.41 1.37299 -0.762879 -15.0944
77 26 3 0.41 1.04125 11.8728 -15.6605
78 26 5 -0.82 0.68283 -1.20489 -15.6994
79 27 3 0.41 2.44638 11.022 -10.4094
80 27 3 0.41 3.52458 12.1466 -10.9432
81 27 5 -0.82 2.75691 11.9911 -10.326
82 28 3 0.41 -1.11927 1.49356 -9.60557
83 28 3 0.41 0.0799363 0.542034 -9.1079
84 28 5 -0.82 -0.208425 1.46948 -9.09116
85 29 3 0.41 8.68072 9.32527 22.1974
86 29 3 0.41 9.52116 10.2531 23.2322
87 29 5 -0.82 9.33031 10.1203 22.2444
88 30 3 0.41 10.2681 0.128112 6.992
89 30 3 0.41 10.5787 -1.4877 7.17048
90 30 5 -0.82 10.7024 -0.726272 6.53277
91 31 3 0.41 8.02457 7.33497 -19.5397
92 31 3 0.41 8.35809 5.87383 -20.2547
93 31 5 -0.82 8.60764 6.4888 -19.4862
94 32 3 0.41 5.21399 9.96226 -15.5138
95 32 3 0.41 4.19554 11.2269 -15.6129
96 32 5 -0.82 4.36985 10.2921 -15.9702
97 33 3 0.41 10.0409 8.37666 -16.8119
98 33 3 0.41 8.67055 8.47321 -16.2278
99 33 5 -0.82 9.13461 8.71977 -17.0642
100 34 3 0.41 0.473557 9.28514 9.18648
101 34 3 0.41 0.0426134 7.7891 8.59568
102 34 5 -0.82 -0.285867 8.71914 8.872
103 35 3 0.41 -0.874302 8.71225 16.671
104 35 3 0.41 -0.275568 10.0974 17.4169
105 35 5 -0.82 -0.998171 9.69861 16.8168
106 36 3 0.41 -1.17042 8.91039 -8.31968
107 36 3 0.41 12.0353 10.3413 -8.30147
108 36 5 -0.82 -1.19408 9.84244 -8.71286
109 37 3 0.41 11.2785 8.12898 21.6836
110 37 3 0.41 10.4093 7.4964 22.9644
111 37 5 -0.82 10.5163 7.49948 21.9366
112 38 3 0.41 10.4754 3.43949 -8.87697
113 38 3 0.41 10.9027 2.75784 -10.3662
114 38 5 -0.82 10.9559 3.603 -9.7912
115 39 3 0.41 7.51699 3.39905 -16.9453
116 39 3 0.41 8.06667 4.77832 -16.6778
117 39 5 -0.82 7.97149 4.14318 -17.4316
118 40 3 0.41 9.88393 0.343945 -21.3087
119 40 3 0.41 8.55922 1.17683 -21.8665
120 40 5 -0.82 9.44521 0.825019 -22.0909
121 41 3 0.41 8.33707 10.3593 -14.4411
122 41 3 0.41 7.74272 11.8209 -13.8465
123 41 5 -0.82 7.84664 11.2655 -14.6415
124 42 3 0.41 5.76748 4.41855 6.84061
125 42 3 0.41 4.51329 3.47916 6.25681
126 42 5 -0.82 5.18384 4.18633 6.01715
127 43 3 0.41 6.98238 11.4015 20.966
128 43 3 0.41 8.52387 11.0314 21.2757
129 43 5 -0.82 7.89288 11.359 20.5161
130 44 3 0.41 8.72327 11.8342 -21.1092
131 44 3 0.41 9.10093 10.6053 -21.9776
132 44 5 -0.82 8.80212 11.5449 -22.0822
133 45 3 0.41 3.76664 5.24022 6.43005
134 45 3 0.41 3.62292 6.65642 7.04869
135 45 5 -0.82 3.08606 5.9605 6.54695
136 46 3 0.41 4.64204 2.21032 22.2689
137 46 3 0.41 5.20658 0.903473 23.0474
138 46 5 -0.82 4.98611 1.2698 22.1173
139 47 3 0.41 9.23703 7.33853 7.77528
140 47 3 0.41 8.58529 6.45348 8.72421
141 47 5 -0.82 8.49836 7.42305 8.49427
142 48 3 0.41 4.96949 10.9596 9.06705
143 48 3 0.41 5.43023 9.69897 8.3898
144 48 5 -0.82 5.58857 10.1774 9.27024
145 49 3 0.41 5.06647 3.06286 0.469359
146 49 3 0.41 6.52736 3.03585 1.1936
147 49 5 -0.82 5.71788 3.62257 0.980199
148 50 3 0.41 2.27576 3.30353 15.7262
149 50 3 0.41 1.26469 3.26028 16.9474
150 50 5 -0.82 2.03121 2.74721 16.5224
151 51 3 0.41 0.17101 -0.719238 1.38384
152 51 3 0.41 -0.759083 0.584961 1.20435
153 51 5 -0.82 -0.100695 0.1946 1.83626
154 52 3 0.41 1.94062 4.27349 -12.6577
155 52 3 0.41 1.19079 4.97324 -13.9173
156 52 5 -0.82 2.0885 4.62158 -13.5843
157 53 3 0.41 2.71201 8.07307 9.89853
158 53 3 0.41 3.86921 7.39451 8.98244
159 53 5 -0.82 2.83427 7.41328 9.11697
160 54 3 0.41 4.93051 10.9892 13.5937
161 54 3 0.41 3.4543 10.5056 13.3274
162 54 5 -0.82 3.97794 11.043 13.9807
163 55 3 0.41 -0.313555 5.37945 -2.53171
164 55 3 0.41 12.2701 6.01082 -3.25348
165 55 5 -0.82 -1.0288 5.2339 -3.2043
166 56 3 0.41 2.2641 -0.374019 0.197213
167 56 3 0.41 3.65561 -1.19587 0.462183
168 56 5 -0.82 2.78443 -0.934854 0.893541
169 57 3 0.41 -0.953849 8.97583 -18.3261
170 57 3 0.41 -1.00178 7.43068 -18.6871
171 57 5 -0.82 -0.646845 8.31373 -19.0532
172 58 3 0.41 7.2052 1.11527 -18.8707
173 58 3 0.41 8.33215 0.116728 -19.45
174 58 5 -0.82 7.89504 0.99284 -19.5993
175 59 3 0.41 9.53171 6.06231 -5.6578
176 59 3 0.41 10.2256 4.94745 -4.91333
177 59 5 -0.82 10.0347 5.25859 -5.84779
178 60 3 0.41 3.35911 6.65252 -0.721435
179 60 3 0.41 4.22943 5.32618 -0.801643
180 60 5 -0.82 3.27353 5.67652 -0.543546
181 61 3 0.41 9.0034 3.20356 14.975
182 61 3 0.41 8.68556 3.47337 13.4076
183 61 5 -0.82 9.24608 2.90967 14.0462
184 62 3 0.41 -0.542351 3.4136 -8.66434
185 62 3 0.41 12.4956 4.51044 -9.27849
186 62 5 -0.82 -0.633797 4.43238 -8.76165
187 63 3 0.41 4.70547 9.92409 18.9164
188 63 3 0.41 4.85746 9.99068 20.5511
189 63 5 -0.82 5.40778 9.87672 19.6854
190 64 3 0.41 6.77109 0.366665 8.98551
191 64 3 0.41 6.36181 1.71421 8.42231
192 64 5 -0.82 6.21569 0.700566 8.213
193 65 3 0.41 7.63355 5.19538 6.44062
194 65 3 0.41 8.69237 5.96544 5.43844
195 65 5 -0.82 7.81493 6.07248 5.95613
196 66 3 0.41 11.979 4.27536 3.00029
197 66 3 0.41 11.7053 5.01709 1.55554
198 66 5 -0.82 11.2765 4.4887 2.27524
199 67 3 0.41 3.30579 11.538 19.1998
200 67 3 0.41 3.78568 11.1619 17.7207
201 67 5 -0.82 3.32015 10.7823 18.527
202 68 3 0.41 0.858973 -0.454086 20.4546
203 68 3 0.41 0.808344 0.613334 19.2236
204 68 5 -0.82 1.41421 -0.0808853 19.7093
205 69 3 0.41 -1.42502 11.2657 -13.6995
206 69 3 0.41 -0.280577 11.3012 -14.8767
207 69 5 -0.82 -0.971671 10.6858 -14.437
208 70 3 0.41 -1.10364 -1.1331 -7.62507
209 70 3 0.41 11.745 -0.0893379 -7.28101
210 70 5 -0.82 11.9515 -0.849504 -7.92443
211 71 3 0.41 6.0092 2.34143 10.8075
212 71 3 0.41 5.65959 3.32794 9.63224
213 71 5 -0.82 5.27464 2.86604 10.4154
214 72 3 0.41 5.4286 6.02646 15.5967
215 72 3 0.41 4.12179 5.85233 14.7605
216 72 5 -0.82 4.44225 6.30658 15.6088
217 73 3 0.41 0.424347 12.0996 -5.28221
218 73 3 0.41 0.504848 -0.221606 -5.37301
219 73 5 -0.82 -0.0139696 -1.04492 -5.68972
220 74 3 0.41 2.36598 1.67878 10.1985
221 74 3 0.41 1.0772 2.26312 9.39418
222 74 5 -0.82 1.71977 1.4733 9.40791
223 75 3 0.41 -0.284721 6.1633 -10.8867
224 75 3 0.41 0.393362 7.1614 -12.0558
225 75 5 -0.82 0.486021 6.81945 -11.0814
226 76 3 0.41 10.0097 12.397 -10.0974
227 76 3 0.41 11.3145 -1.0448 -9.23857
228 76 5 -0.82 10.9408 -1.25962 -10.21
229 77 3 0.41 5.90726 -0.590343 15.2253
230 77 3 0.41 6.98687 0.133432 14.3293
231 77 5 -0.82 6.15096 -0.499973 14.2484
232 78 3 0.41 -0.628388 3.95803 -14.0422
233 78 3 0.41 -1.41981 5.22845 -14.4847
234 78 5 -0.82 -0.537158 4.72859 -14.6851
235 79 3 0.41 11.1004 11.8737 9.64035
236 79 3 0.41 9.85184 -1.10764 9.74885
237 79 5 -0.82 10.8432 -1.13869 9.57271
238 80 3 0.41 8.92118 3.67095 -14.7133
239 80 3 0.41 7.60329 3.07991 -14.3683
240 80 5 -0.82 8.48421 2.79526 -14.7502
241 81 3 0.41 5.00341 -0.172158 -0.936405
242 81 3 0.41 5.34391 12.3132 -1.51012
243 81 5 -0.82 4.78336 -1.17841 -0.869982
244 82 3 0.41 1.11984 4.83911 11.6296
245 82 3 0.41 -0.297867 5.28793 10.8736
246 82 5 -0.82 0.104374 4.72 11.67
247 83 3 0.41 1.32511 4.08208 9.41178
248 83 3 0.41 -0.378704 4.33061 9.24606
249 83 5 -0.82 0.432734 3.73513 9.01427
250 84 3 0.41 1.90143 -0.208398 9.986
251 84 3 0.41 1.61321 -0.385112 11.5719
252 84 5 -0.82 1.91317 -0.901285 10.7482
253 85 3 0.41 7.38799 7.31054 21.8646
254 85 3 0.41 7.40755 6.10257 23.0066
255 85 5 -0.82 7.61887 6.31347 22.0105
256 86 3 0.41 2.82105 2.56512 -13.8581
257 86 3 0.41 3.34735 1.60831 -12.6617
258 86 5 -0.82 3.65904 2.16547 -13.4886
259 87 3 0.41 0.509358 2.63784 2.14462
260 87 3 0.41 1.97716 2.69844 2.2803
261 87 5 -0.82 1.15573 2.58169 2.89905
262 88 3 0.41 0.271397 11.6133 22.1841
263 88 3 0.41 0.289373 10.0772 21.6846
264 88 5 -0.82 0.823456 10.9292 21.7596
265 89 3 0.41 -0.127504 10.0667 -11.1125
266 89 3 0.41 -1.46789 10.5579 -10.371
267 89 5 -0.82 -1.03653 10.5271 -11.309
268 90 3 0.41 5.44848 0.728684 -13.7335
269 90 3 0.41 6.56157 -0.395791 -13.5479
270 90 5 -0.82 5.98181 0.0988127 -14.2835
271 91 3 0.41 8.62979 -0.237109 4.37568
272 91 3 0.41 7.1259 -0.559917 4.76636
273 91 5 -0.82 7.80554 0.19936 4.80641
274 92 3 0.41 7.95073 10.1783 4.7429
275 92 3 0.41 8.1909 11.4888 5.46435
276 92 5 -0.82 7.97323 11.2035 4.50949
277 93 3 0.41 10.9924 7.15143 11.5939
278 93 3 0.41 12.2156 7.82399 12.4471
279 93 5 -0.82 11.8388 7.73676 11.5221
280 94 3 0.41 6.80432 2.85367 -1.54397
281 94 3 0.41 7.99751 3.94086 -1.33788
282 94 5 -0.82 7.6846 3.15574 -1.91581
283 95 3 0.41 -0.340152 1.83881 16.5685
284 95 3 0.41 -0.151213 1.60779 14.9612
285 95 5 -0.82 -0.855332 1.91961 15.6605
286 96 3 0.41 5.79235 11.556 11.9278
287 96 3 0.41 6.47959 11.6175 13.2884
288 96 5 -0.82 6.36764 10.9377 12.5251
289 97 3 0.41 10.4045 4.68088 22.9395
290 97 3 0.41 10.406 3.57079 21.785
291 97 5 -0.82 10.2289 4.56996 21.9374
292 98 3 0.41 9.02209 3.74715 -18.6309
293 98 3 0.41 8.87669 2.48919 -19.7003
294 98 5 -0.82 9.51497 3.21673 -19.3522
295 99 3 0.41 4.98815 7.60661 14.4692
296 99 3 0.41 5.60519 9.13608 14.8943
297 99 5 -0.82 5.44712 8.48251 14.1462
298 100 3 0.41 8.37823 1.69949 1.09446
299 100 3 0.41 7.19777 0.86033 1.59856
300 100 5 -0.82 7.91613 0.849057 0.87943
301 101 3 0.41 5.22086 10.004 3.77113
302 101 3 0.41 6.44309 9.86829 2.78144
303 101 5 -0.82 5.8062 9.29564 3.30154
304 102 3 0.41 4.09667 7.49422 -19.3676
305 102 3 0.41 5.18296 6.39546 -19.5951
306 102 5 -0.82 4.96797 7.35002 -19.8123
307 103 3 0.41 10.944 6.73689 4.83742
308 103 3 0.41 12.1591 7.66461 4.41276
309 103 5 -0.82 11.5348 7.50652 5.18
310 104 3 0.41 7.42614 11.68 -2.50224
311 104 3 0.41 6.61169 10.513 -1.827
312 104 5 -0.82 6.46449 11.4283 -2.29999
313 105 3 0.41 -0.696886 1.60508 11.2772
314 105 3 0.41 0.228562 2.87697 11.5843
315 105 5 -0.82 0.148977 1.89294 11.7604
316 106 3 0.41 10.1167 4.2651 -0.348324
317 106 3 0.41 11.4842 4.91568 -0.877486
318 106 5 -0.82 10.9213 4.06925 -0.933783
319 107 3 0.41 4.26009 8.88381 -0.477268
320 107 3 0.41 4.86826 7.90412 -1.53763
321 107 5 -0.82 3.97032 8.25091 -1.18984
322 108 3 0.41 1.71775 4.09746 -19.1266
323 108 3 0.41 1.63469 2.46924 -19.3571
324 108 5 -0.82 2.29291 3.24217 -19.1886
325 109 3 0.41 11.4493 11.9262 -21.9023
326 109 3 0.41 11.7726 -0.51911 -21.8607
327 109 5 -0.82 11.5631 -1.269 -22.4655
328 110 3 0.41 1.49445 10.0982 -6.6986
329 110 3 0.41 0.238882 9.84517 -7.75351
330 110 5 -0.82 1.2485 9.97433 -7.68259
331 111 3 0.41 7.2376 0.559899 -3.23442
332 111 3 0.41 5.62641 0.696658 -2.96128
333 111 5 -0.82 6.29164 0.358611 -3.60206
334 112 3 0.41 0.280183 1.69683 -14.1177
335 112 3 0.41 0.726035 2.59218 -15.3427
336 112 5 -0.82 1.08259 2.17111 -14.5139
337 113 3 0.41 3.42411 2.75871 19.282
338 113 3 0.41 4.6724 1.86334 19.5539
339 113 5 -0.82 3.69005 1.80368 19.277
340 114 3 0.41 8.78652 -0.0914589 -16.0411
341 114 3 0.41 9.42243 0.479822 -17.3877
342 114 5 -0.82 8.81564 -0.302109 -17.0329
343 115 3 0.41 11.4547 3.54698 -3.65594
344 115 3 0.41 10.2224 3.46073 -2.62392
345 115 5 -0.82 10.455 3.64041 -3.59119
346 116 3 0.41 10.7249 10.743 14.7053
347 116 3 0.41 10.5909 11.7401 15.9795
348 116 5 -0.82 10.0846 11.2997 15.1913
349 117 3 0.41 6.83763 1.98756 -22.3236
350 117 3 0.41 6.99181 3.09655 -21.1391
351 117 5 -0.82 7.35982 2.792 -22.0307
352 118 3 0.41 10.5212 8.02988 -2.67019
353 118 3 0.41 10.7647 6.81131 -1.68865
354 118 5 -0.82 10.8 7.02903 -2.68149
355 119 3 0.41 3.90114 9.9092 -2.84799
356 119 3 0.41 4.5774 10.7738 -3.92294
357 119 5 -0.82 4.23025 9.82303 -3.79775
358 120 3 0.41 8.46226 -0.0224711 17.4151
359 120 3 0.41 8.43658 12.4451 16.8419
360 120 5 -0.82 8.33292 -0.573528 16.5873
361 121 3 0.41 7.77522 4.681 -11.585
362 121 3 0.41 8.77748 5.71583 -12.2434
363 121 5 -0.82 8.32527 4.83303 -12.4661
364 122 3 0.41 8.83158 6.48456 12.3181
365 122 3 0.41 9.42047 5.54291 11.3103
366 122 5 -0.82 9.57966 6.50235 11.6112
367 123 3 0.41 8.33458 1.31405 -2.02552
368 123 3 0.41 8.51038 -0.324533 -2.00742
369 123 5 -0.82 8.73424 0.52157 -2.51737
370 124 3 0.41 0.727117 7.72305 0.237823
371 124 3 0.41 1.16502 9.08737 0.996377
372 124 5 -0.82 1.53056 8.22974 0.624101
373 125 3 0.41 4.09339 5.82619 -22.0089
374 125 3 0.41 4.33493 7.30758 -21.4839
375 125 5 -0.82 3.87519 6.82189 -22.2137
376 126 3 0.41 6.86712 3.16039 -7.83631
377 126 3 0.41 6.70539 1.82864 -7.12287
378 126 5 -0.82 6.84733 2.16376 -8.06162
379 127 3 0.41 -1.34156 9.97494 15.2699
380 127 3 0.41 -1.31961 9.03323 13.8753
381 127 5 -0.82 12.292 9.92486 14.2693
382 128 3 0.41 9.96998 1.20171 11.252
383 128 3 0.41 8.40327 0.79003 10.897
384 128 5 -0.82 9.23374 1.19659 10.5251
385 129 3 0.41 12.3293 6.56177 10.407
386 129 3 0.41 11.7819 5.4524 9.40315
387 129 5 -0.82 -1.33887 5.80194 9.79382
388 130 3 0.41 5.14933 11.0708 -8.68365
389 130 3 0.41 5.54585 11.3647 -10.267
390 130 5 -0.82 5.61078 11.7347 -9.31636
391 131 3 0.41 7.3135 10.8571 -16.2129
392 131 3 0.41 8.20765 10.1692 -17.3061
393 131 5 -0.82 7.21168 10.3788 -17.1092
394 132 3 0.41 1.46983 4.28875 -1.74381
395 132 3 0.41 1.46559 3.85875 -0.220079
396 132 5 -0.82 0.992066 3.65645 -1.09516
397 133 3 0.41 3.86301 2.87151 3.92126
398 133 3 0.41 3.18832 1.52704 4.45779
399 133 5 -0.82 4.06048 1.97047 4.40433
400 134 3 0.41 6.23446 5.06049 1.06414
401 134 3 0.41 5.08799 6.19533 1.17422
402 134 5 -0.82 6.10783 6.06833 1.17709
403 135 3 0.41 6.51232 7.42769 -16.0406
404 135 3 0.41 5.31052 6.41117 -15.6174
405 135 5 -0.82 5.72355 6.89992 -16.4257
406 136 3 0.41 0.719331 9.6477 11.5163
407 136 3 0.41 -0.919459 9.18454 11.2385
408 136 5 -0.82 -0.277789 9.8472 11.6707
409 137 3 0.41 12.3172 9.60397 -0.914311
410 137 3 0.41 11.8117 8.61141 0.196814
411 137 5 -0.82 11.4914 9.284 -0.457927
412 138 3 0.41 7.96168 12.1603 10.4437
413 138 3 0.41 6.82054 11.4207 9.5
414 138 5 -0.82 7.16989 12.3199 9.83282
415 139 3 0.41 6.57896 3.57403 19.4778
416 139 3 0.41 6.79951 2.46303 20.704
417 139 5 -0.82 6.33759 2.63644 19.8374
418 140 3 0.41 9.84244 9.93863 -8.52918
419 140 3 0.41 9.89352 8.93788 -9.70373
420 140 5 -0.82 9.32801 9.65348 -9.35007
421 141 3 0.41 7.06081 8.87327 -21.4506
422 141 3 0.41 6.67911 7.44904 -22.1822
423 141 5 -0.82 6.5118 8.48067 -22.2382
424 142 3 0.41 11.2025 4.91018 -12.8525
425 142 3 0.41 9.8207 4.1281 -13.3673
426 142 5 -0.82 10.8079 4.31308 -13.5944
427 143 3 0.41 11.3741 10.4743 11.0152
428 143 3 0.41 10.0905 10.2504 11.8691
429 143 5 -0.82 10.9136 10.8452 11.8353
430 144 3 0.41 5.3295 1.95748 -18.9494
431 144 3 0.41 3.86671 2.16242 -19.3229
432 144 5 -0.82 4.77368 1.96672 -19.78
433 145 3 0.41 11.629 11.2027 -18.7389
434 145 3 0.41 10.7569 10.5755 -19.8687
435 145 5 -0.82 11.2503 11.4785 -19.614
436 146 3 0.41 9.09016 1.37911 -10.8482
437 146 3 0.41 8.30668 2.1809 -11.9749
438 146 5 -0.82 9.20121 1.73986 -11.7755
439 147 3 0.41 11.6158 9.54643 2.23539
440 147 3 0.41 10.5951 8.75072 3.34147
441 147 5 -0.82 10.6691 9.17671 2.4602
442 148 3 0.41 7.33763 -0.182688 18.8654
443 148 3 0.41 6.22137 1.10798 19.009
444 148 5 -0.82 6.32064 0.109386 18.7506
445 149 3 0.41 12.31 -1.46032 -5.38315
446 149 3 0.41 10.7042 -1.49946 -5.52635
447 149 5 -0.82 11.5279 11.9628 -5.22728
448 150 3 0.41 10.9681 2.91178 -14.6665
449 150 3 0.41 12.0871 1.77012 -14.6106
450 150 5 -0.82 11.4683 2.2662 -15.2818
451 151 3 0.41 -1.48016 -1.19113 10.4888
452 151 3 0.41 0.0755055 -0.849595 10.7546
453 151 5 -0.82 -0.749304 -1.24815 11.1747
454 152 3 0.41 -0.68986 2.77368 4.70246
455 152 3 0.41 11.8387 2.19202 4.92942
456 152 5 -0.82 -1.28918 1.99331 4.42284
457 153 3 0.41 10.6948 -1.32595 14.1226
458 153 3 0.41 12.1964 -0.915269 14.5558
459 153 5 -0.82 11.6256 -1.10097 13.7298
460 154 3 0.41 6.17148 8.5215 -19.794
461 154 3 0.41 7.08534 9.24386 -18.7382
462 154 5 -0.82 7.15661 8.75336 -19.6497
463 155 3 0.41 2.69628 4.84087 18.7704
464 155 3 0.41 3.28308 5.20889 17.4211
465 155 5 -0.82 3.55024 4.77582 18.283
466 156 3 0.41 5.88037 9.00735 -3.992
467 156 3 0.41 7.34003 8.8819 -3.15061
468 156 5 -0.82 6.75755 8.51125 -3.90904
469 157 3 0.41 11.7943 -0.640948 21.8821
470 157 3 0.41 10.9947 -1.26424 22.9912
471 157 5 -0.82 11.0334 -1.28894 21.9907
472 158 3 0.41 2.24756 8.64167 -8.11259
473 158 3 0.41 3.11357 7.89909 -6.97694
474 158 5 -0.82 2.88061 7.83502 -7.98171
475 159 3 0.41 9.66787 7.72646 -12.2008
476 159 3 0.41 10.0541 7.17962 -13.6445
477 159 5 -0.82 9.33639 7.08177 -12.9514
478 160 3 0.41 11.5344 0.833414 10.176
479 160 3 0.41 12.4742 1.48801 8.99463
480 160 5 -0.82 12.2732 1.54087 9.97581
481 161 3 0.41 2.62397 12.3424 -1.90158
482 161 3 0.41 3.09843 11.1914 -0.984829
483 161 5 -0.82 2.50605 11.3237 -1.76461
484 162 3 0.41 4.10608 3.90232 -5.91801
485 162 3 0.41 5.14613 5.16572 -6.33911
486 162 5 -0.82 4.33146 4.57706 -6.64844
487 163 3 0.41 0.253277 3.21751 -12.2902
488 163 3 0.41 -1.21686 2.56639 -12.126
489 163 5 -0.82 -0.758362 3.33898 -12.535
490 164 3 0.41 6.63141 9.21377 -0.0103228
491 164 3 0.41 7.92977 8.64412 -0.466813
492 164 5 -0.82 7.05512 9.03441 -0.895248
493 165 3 0.41 7.05637 8.14761 17.6806
494 165 3 0.41 6.09494 8.42915 18.8502
495 165 5 -0.82 6.23002 7.78064 18.0922
496 166 3 0.41 6.78868 4.48417 16.2811
497 166 3 0.41 7.67288 5.77231 16.025
498 166 5 -0.82 6.88047 5.29354 15.667
499 167 3 0.41 4.32913 2.12628 -8.88446
500 167 3 0.41 3.35195 3.39752 -8.54501
501 167 5 -0.82 4.07159 3.06437 -9.18218
502 168 3 0.41 6.37987 -1.2118 -7.95726
503 168 3 0.41 6.1889 -0.278699 -6.64993
504 168 5 -0.82 6.72317 -1.02578 -6.98543
505 169 3 0.41 7.14994 6.67793 2.22838
506 169 3 0.41 7.70212 8.03608 3.04005
507 169 5 -0.82 7.98722 7.20444 2.6023
508 170 3 0.41 3.79534 0.671626 -6.3412
509 170 3 0.41 2.31193 0.7585 -5.78702
510 170 5 -0.82 2.8651 0.290496 -6.4666
511 171 3 0.41 3.43584 -1.06811 15.0581
512 171 3 0.41 4.4044 -0.442159 13.9763
513 171 5 -0.82 3.46993 -0.343976 14.3277
514 172 3 0.41 0.485174 0.125709 22.8057
515 172 3 0.41 -0.578599 0.893016 21.9013
516 172 5 -0.82 -0.232953 -0.0604187 22.0811
517 173 3 0.41 5.30689 -0.610489 8.53556
518 173 3 0.41 3.70193 -1.00083 8.17792
519 173 5 -0.82 4.53712 -1.29189 8.71989
520 174 3 0.41 12.2756 4.98406 20.5904
521 174 3 0.41 12.0897 4.39005 19.1323
522 174 5 -0.82 -1.48619 4.18641 20.0558
523 175 3 0.41 2.04479 11.2456 2.17975
524 175 3 0.41 2.22843 10.1915 3.3159
525 175 5 -0.82 2.76387 10.624 2.54893
526 176 3 0.41 2.71414 5.25327 -3.53176
527 176 3 0.41 1.65601 6.32553 -2.93804
528 176 5 -0.82 1.73964 5.37195 -3.35055
529 177 3 0.41 0.602118 11.5405 9.09868
530 177 3 0.41 1.90622 11.3936 10.0192
531 177 5 -0.82 1.36729 10.9342 9.33892
532 178 3 0.41 0.337401 12.1687 -21.9274
533 178 3 0.41 1.75423 -1.04836 -22.3139
534 178 5 -0.82 0.726166 -1.02606 -22.3537
535 179 3 0.41 -0.524985 3.21807 -21.3542
536 179 3 0.41 0.493797 4.48891 -21.1119
537 179 5 -0.82 0.212775 3.76793 -21.7789
538 180 3 0.41 11.407 2.6292 1.8302
539 180 3 0.41 11.6869 1.7203 2.95702
540 180 5 -0.82 11.0219 1.78278 2.23233
541 181 3 0.41 2.36359 1.97458 -17.5921
542 181 3 0.41 2.22219 1.70186 -16.086
543 181 5 -0.82 2.5393 1.24068 -16.9052
544 182 3 0.41 1.67745 2.62151 -22.0523
545 182 3 0.41 2.58596 1.4984 -21.3794
546 182 5 -0.82 2.60423 2.2377 -22.1069
547 183 3 0.41 1.12072 7.79265 -14.111
548 183 3 0.41 2.70909 7.41274 -14.2627
549 183 5 -0.82 1.82678 7.43377 -14.7614
550 184 3 0.41 10.6423 12.2334 5.1745
551 184 3 0.41 10.6004 11.5436 3.73319
552 184 5 -0.82 10.8883 11.3835 4.67719
553 185 3 0.41 2.05029 2.65938 -10.8871
554 185 3 0.41 1.87053 4.23974 -10.4141
555 185 5 -0.82 1.49215 3.5568 -11.0401
556 186 3 0.41 -0.619378 -0.440101 -3.4919
557 186 3 0.41 -1.38243 -1.26818 -2.3703
558 186 5 -0.82 -0.434281 -0.945268 -2.6451
559 187 3 0.41 9.18512 6.59201 3.39473
560 187 3 0.41 10.4156 5.49562 3.41735
561 187 5 -0.82 9.74537 6.02378 4.0122
562 188 3 0.41 -0.188491 10.2654 -21.8619
563 188 3 0.41 -0.988779 9.30857 -20.9388
564 188 5 -0.82 -1.06412 9.70094 -21.8974
565 189 3 0.41 6.96753 10.3128 17.0931
566 189 3 0.41 5.70518 11.0801 16.3853
567 189 5 -0.82 6.37542 10.3168 16.2413
568 190 3 0.41 5.55952 -0.515113 17.4327
569 190 3 0.41 4.11715 -0.626864 16.6726
570 190 5 -0.82 5.02174 -1.11496 16.781
571 191 3 0.41 3.85495 7.37144 16.6089
572 191 3 0.41 3.27566 7.97761 17.9192
573 191 5 -0.82 3.27119 8.16118 16.9109
574 192 3 0.41 -0.52364 8.16046 20.6359
575 192 3 0.41 0.0518693 8.27015 19.2773
576 192 5 -0.82 -0.525278 7.63734 19.7682
577 193 3 0.41 8.97149 8.02223 11.3467
578 193 3 0.41 8.65319 9.31201 10.3996
579 193 5 -0.82 8.71763 9.02173 11.3715
580 194 3 0.41 5.38617 4.37911 18.2371
581 194 3 0.41 5.95775 5.83242 18.0145
582 194 5 -0.82 6.25825 4.93313 18.2865
583 195 3 0.41 9.56987 0.969346 8.71248
584 195 3 0.41 8.86276 1.9058 7.88606
585 195 5 -0.82 9.08132 0.948888 7.84731
586 196 3 0.41 11.9852 2.6657 -22.0874
587 196 3 0.41 10.4007 2.49098 -21.9004
588 196 5 -0.82 11.0984 3.12513 -22.3315
589 197 3 0.41 -0.45629 9.08009 6.1182
590 197 3 0.41 0.255207 7.60686 6.34173
591 197 5 -0.82 0.286998 8.46619 5.80581
592 198 3 0.41 5.61607 4.31021 -15.4914
593 198 3 0.41 5.15483 2.9491 -15.0577
594 198 5 -0.82 5.79651 3.33773 -15.7706
595 199 3 0.41 6.12551 -0.740784 -15.7985
596 199 3 0.41 7.08168 -1.38235 -16.8863
597 199 5 -0.82 6.11853 -1.06621 -16.7526
598 200 3 0.41 3.13297 8.86023 7.94853
599 200 3 0.41 2.40394 10.2492 8.29951
600 200 5 -0.82 3.05913 9.86423 7.66226
601 201 3 0.41 9.06815 -0.60168 12.8972
602 201 3 0.41 10.1018 12.3428 12.0257
603 201 5 -0.82 9.23405 -1.09304 12.0098
604 202 3 0.41 0.839333 -0.868008 -12.5785
605 202 3 0.41 1.96928 12.0682 -13.241
606 202 5 -0.82 1.69306 -0.953164 -13.174
607 203 3 0.41 8.09 -0.498358 7.28595
608 203 3 0.41 7.57777 12.1639 8.10853
609 203 5 -0.82 7.9707 12.4798 7.25363
610 204 3 0.41 1.64142 0.67499 -20.327
611 204 3 0.41 2.93451 0.296066 -19.5564
612 204 5 -0.82 2.47232 0.119515 -20.392
613 205 3 0.41 1.55865 2.57325 -6.90078
614 205 3 0.41 0.86536 2.42192 -8.40607
615 205 5 -0.82 1.58331 2.89749 -7.8323
616 206 3 0.41 3.32074 2.41105 13.2156
617 206 3 0.41 3.02056 3.75392 14.1492
618 206 5 -0.82 3.64956 2.97562 13.9949
619 207 3 0.41 0.882395 10.7501 -1.42139
620 207 3 0.41 -0.364468 10.7089 -0.487649
621 207 5 -0.82 -0.0781139 10.3471 -1.36586
622 208 3 0.41 6.61257 6.64501 10.5093
623 208 3 0.41 6.85722 5.33783 9.67095
624 208 5 -0.82 6.63198 5.64733 10.6013
625 209 3 0.41 7.44286 7.84573 -11.4068
626 209 3 0.41 6.13902 6.79464 -11.7931
627 209 5 -0.82 6.94353 6.98731 -11.1519
628 210 3 0.41 10.697 5.02336 13.4307
629 210 3 0.41 10.4445 6.50612 14.1829
630 210 5 -0.82 10.6149 5.50019 14.2819
631 211 3 0.41 4.61465 11.9802 5.25968
632 211 3 0.41 3.37838 11.0851 4.67522
633 211 5 -0.82 4.36092 11.0595 4.87671
634 212 3 0.41 2.25939 9.80953 16.5467
635 212 3 0.41 2.94847 10.6865 15.3892
636 212 5 -0.82 2.22983 10.7288 16.0778
637 213 3 0.41 12.2985 8.61987 -4.76768
638 213 3 0.41 12.4935 7.40295 -5.79604
639 213 5 -0.82 11.7387 7.98181 -5.37841
640 214 3 0.41 2.20162 4.16687 -16.523
641 214 3 0.41 2.69222 4.65035 -15.0124
642 214 5 -0.82 2.9973 4.5072 -15.9696
643 215 3 0.41 5.70165 9.07828 -7.96337
644 215 3 0.41 4.80804 9.91179 -6.84023
645 215 5 -0.82 5.52089 9.22756 -6.99901
646 216 3 0.41 10.0336 3.79067 6.14769
647 216 3 0.41 10.9435 4.3567 7.41955
648 216 5 -0.82 10.534 4.59791 6.51771
649 217 3 0.41 8.98996 2.90813 -6.94996
650 217 3 0.41 10.5712 2.79172 -6.98705
651 217 5 -0.82 9.77473 2.90504 -7.59147
652 218 3 0.41 0.105042 7.52587 13.8152
653 218 3 0.41 -0.766673 6.37341 14.3703
654 218 5 -0.82 -0.910287 7.30305 13.9865
655 219 3 0.41 4.21896 -0.947129 -4.61105
656 219 3 0.41 5.68505 -1.35776 -4.09392
657 219 5 -0.82 4.92433 12.3002 -4.64002
658 220 3 0.41 4.044 1.14363 16.4811
659 220 3 0.41 3.87326 2.57437 16.9679
660 220 5 -0.82 4.64737 1.97173 16.5685
661 221 3 0.41 3.85057 5.33718 -11.0927
662 221 3 0.41 4.17356 3.78925 -10.5862
663 221 5 -0.82 4.37857 4.47765 -11.305
664 222 3 0.41 5.10552 4.17991 -21.3112
665 222 3 0.41 4.11873 3.18109 -22.1396
666 222 5 -0.82 4.4674 4.13989 -22.0753
667 223 3 0.41 3.66127 0.31741 -8.14752
668 223 3 0.41 4.45647 -0.751352 -9.07163
669 223 5 -0.82 4.27615 0.274099 -8.94289
670 224 3 0.41 10.2425 0.396485 2.89025
671 224 3 0.41 9.69273 -1.00949 2.28217
672 224 5 -0.82 9.83027 -0.508412 3.17594
673 225 3 0.41 7.61371 10.9836 1.43133
674 225 3 0.41 8.83038 10.0086 2.00817
675 225 5 -0.82 7.84904 10.0143 1.66395
676 226 3 0.41 8.93586 6.84747 16.7224
677 226 3 0.41 9.27967 8.38514 16.2358
678 226 5 -0.82 8.52205 7.71838 16.3448
679 227 3 0.41 9.2485 8.72699 20.409
680 227 3 0.41 9.21877 8.06536 18.896
681 227 5 -0.82 8.63767 8.27083 19.735
682 228 3 0.41 6.28136 3.99944 -12.6707
683 228 3 0.41 5.29791 2.84553 -12.8916
684 228 5 -0.82 6.30289 3.0279 -12.8741
685 229 3 0.41 -0.385087 0.367162 -22.0532
686 229 3 0.41 -1.40081 0.797221 -20.9353
687 229 5 -0.82 -0.963689 1.18214 -21.786
688 230 3 0.41 3.98082 2.81794 -3.53608
689 230 3 0.41 2.60613 2.74126 -4.43853
690 230 5 -0.82 3.58386 3.02183 -4.46266
691 231 3 0.41 -0.877627 4.45831 -7.07791
692 231 3 0.41 11.9377 4.9086 -6.20752
693 231 5 -0.82 -1.2038 4.51832 -6.11568
694 232 3 0.41 3.88685 11.7353 -6.11758
695 232 3 0.41 3.04189 12.1525 -7.50977
696 232 5 -0.82 3.7103 11.507 -7.07643
697 233 3 0.41 2.56101 5.25767 -6.50176
698 233 3 0.41 1.2878 4.51558 -7.24855
699 233 5 -0.82 1.54754 5.17715 -6.51046
700 234 3 0.41 3.71776 10.3333 1.31801
701 234 3 0.41 5.03313 11.0927 0.820308
702 234 5 -0.82 4.45632 10.26 0.617437
703 235 3 0.41 3.73911 4.05664 9.99138
704 235 3 0.41 2.99623 5.55115 9.64591
705 235 5 -0.82 3.01775 4.57929 9.44627
706 236 3 0.41 3.12478 2.34326 0.0916855
707 236 3 0.41 3.03431 1.34014 1.37903
708 236 5 -0.82 2.88117 2.27062 1.06882
709 237 3 0.41 8.668 10.4413 7.77875
710 237 3 0.41 8.59956 9.16073 8.66248
711 237 5 -0.82 8.71777 10.1387 8.77723
712 238 3 0.41 -0.866016 5.33244 4.89916
713 238 3 0.41 11.8166 4.58253 5.37123
714 238 5 -0.82 12.4589 4.73133 4.56303
715 239 3 0.41 10.3645 11.3988 0.15652
716 239 3 0.41 11.3256 11.7982 1.38969
717 239 5 -0.82 10.3706 11.8148 1.07095
718 240 3 0.41 1.20862 1.33087 -1.18261
719 240 3 0.41 0.574274 -0.21692 -1.37263
720 240 5 -0.82 1.24619 0.375306 -0.832519
721 241 3 0.41 2.3517 -0.750285 2.40653
722 241 3 0.41 2.49856 -1.18347 3.97462
723 241 5 -0.82 2.16715 -0.469117 3.37882
724 242 3 0.41 -0.771655 7.5528 2.13172
725 242 3 0.41 -0.117145 8.78965 2.96429
726 242 5 -0.82 -0.444819 7.83368 3.0458
727 243 3 0.41 -0.382851 0.977416 -18.4532
728 243 3 0.41 -0.788317 2.20751 -19.2454
729 243 5 -0.82 0.0246166 1.68957 -19.0669
730 244 3 0.41 6.57368 9.31573 21.2865
731 244 3 0.41 6.51114 9.04232 22.9247
732 244 5 -0.82 6.95911 8.7501 22.0237
733 245 3 0.41 0.853602 8.25512 -21.8276
734 245 3 0.41 1.855 7.04646 -22.0973
735 245 5 -0.82 0.848821 7.22797 -22.0192
736 246 3 0.41 11.1435 11.3601 19.8125
737 246 3 0.41 10.3544 10.5558 20.9713
738 246 5 -0.82 10.9522 10.416 20.1569
739 247 3 0.41 10.9029 8.80111 13.8213
740 247 3 0.41 9.41306 8.61129 14.2041
741 247 5 -0.82 10.3063 8.09327 14.1623
742 248 3 0.41 4.83848 8.45364 11.7403
743 248 3 0.41 5.61053 9.10865 10.5534
744 248 5 -0.82 5.68711 8.36699 11.2052
745 249 3 0.41 -1.4584 -0.161565 -13.3297
746 249 3 0.41 -0.341985 -0.0710029 -14.4877
747 249 5 -0.82 -1.03406 0.439979 -13.9552
748 250 3 0.41 0.878059 7.92284 22.9651
749 250 3 0.41 2.19054 7.30877 22.2083
750 250 5 -0.82 1.22505 7.61903 22.0862
751 251 3 0.41 3.68472 0.687068 12.195
752 251 3 0.41 4.19932 1.95302 11.3391
753 251 5 -0.82 3.35433 1.51929 11.7058