ITEM: TIMESTEP
55000
ITEM: NUMBER OF ATOMS
1360
ITEM: BOX BOUNDS pp pp pp
-1.5000000000000000e+00 1.2500000000000000e+01
-1.5000000000000000e+00 1.2500000000000000e+01
-2.7500000000000000e+01 2.7500000000000000e+01
ITEM: ATOMS id mol type q x y z
1 1 3 0.41 11.4479 1.06606 2.63046
2 1 3 0.41 12.0071 0.0888285 3.76035
3 1 5 -0.82 12.2245 0.959353 3.30296
4 2 3 0.41 4.08972 9.38174 -15.7187
5 2 3 0.41 5.60837 9.82462 -15.3235
6 2 5 -0.82 5.02714 9.39683 -16.056
7 3 3 0.41 -0.842103 2.44566 15.7452
8 3 3 0.41 11.9857 2.61779 14.6628
9 3 5 -0.82 -1.49967 3.1162 15.3533
10 4 3 0.41 0.685562 10.6415 -19.7
11 4 3 0.41 1.90263 11.0635 -18.8638
12 4 5 -0.82 1.66428 10.8368 -19.8241
13 5 3 0.41 2.78769 4.66544 -14.3191
14 5 3 0.41 4.19732 5.4715 -14.5571
15 5 5 -0.82 3.69537 4.63469 -14.8281
16 6 3 0.41 8.19175 -1.45336 -21.219
17 6 3 0.41 9.29548 11.6794 -21.95
18 6 5 -0.82 8.5801 12.3816 -22.1443
19 7 3 0.41 2.27235 10.1356 -16.3646
20 7 3 0.41 2.08386 10.3381 -14.8952
21 7 5 -0.82 2.49141 9.65261 -15.5049
22 8 3 0.41 -0.257634 1.48769 18.5142
23 8 3 0.41 12.4432 2.13842 17.8634
24 8 5 -0.82 -0.962095 1.32442 17.8029
25 9 3 0.41 -0.236373 3.44121 -19.3395
26 9 3 0.41 1.27676 3.59495 -19.5669
27 9 5 -0.82 0.555498 2.89023 -19.6852
28 10 3 0.41 10.0106 8.01664 9.9394
29 10 3 0.41 9.0137 8.34196 8.65703
30 10 5 -0.82 9.37188 7.60143 9.26109
31 11 3 0.41 2.48076 10.1422 -10.7094
32 11 3 0.41 3.24535 10.7518 -9.39797
33 11 5 -0.82 2.36404 10.7339 -9.87214
34 12 3 0.41 2.72166 -1.09673 -11.0002
35 12 3 0.41 3.23242 -1.41973 -12.4371
36 12 5 -0.82 2.36666 -1.20991 -11.9426
37 13 3 0.41 4.38016 12.0945 5.65192
38 13 3 0.41 2.75489 11.8324 5.67802
39 13 5 -0.82 3.52915 12.3354 5.1897
40 14 3 0.41 11.92 5.54201 -19.8703
41 14 3 0.41 11.8489 7.02624 -19.2419
42 14 5 -0.82 12.3408 6.47918 -19.9364
43 15 3 0.41 11.6826 7.28897 0.617164
44 15 3 0.41 11.1856 7.35548 2.22664
45 15 5 -0.82 11.8847 6.89916 1.55989
46 16 3 0.41 8.35841 5.17381 7.92619
47 16 3 0.41 9.14788 5.91526 9.10222
48 16 5 -0.82 8.80512 4.99565 8.84925
49 17 3 0.41 8.28632 12.037 23.1013
50 17 3 0.41 8.31539 -0.505784 22.1791
51 17 5 -0.82 8.68938 -1.49262 22.3273
52 18 3 0.41 5.45341 11.6894 -22.2721
53 18 3 0.41 5.01695 -0.893358 -21.5579
54 18 5 -0.82 5.34605 -1.28927 -22.4453
55 19 3 0.41 11.1134 7.99622 6.3486
56 19 3 0.41 9.56226 8.50137 6.32292
57 19 5 -0.82 10.5133 8.74062 6.06791
58 20 3 0.41 0.717383 10.4253 -13.0969
59 20 3 0.41 1.67694 11.7171 -12.853
60 20 5 -0.82 1.08887 11.2333 -13.5343
61 21 3 0.41 10.2476 0.799402 20.64
62 21 3 0.41 8.95427 0.736104 19.5625
63 21 5 -0.82 9.95439 0.916995 19.6797
64 22 3 0.41 6.89466 -0.148812 -19.3196
65 22 3 0.41 6.89636 12.3028 -19.5836
66 22 5 -0.82 7.42982 -0.853988 -19.7621
67 23 3 0.41 10.0734 -0.994702 -15.5764
68 23 3 0.41 11.4097 -0.172652 -15.5985
69 23 5 -0.82 10.9243 -0.914447 -16.1693
70 24 3 0.41 4.02481 9.82868 -18.6534
71 24 3 0.41 4.81764 10.4725 -17.4466
72 24 5 -0.82 4.51171 10.6701 -18.3907
73 25 3 0.41 8.4397 4.90706 -15.5232
74 25 3 0.41 9.8434 5.61385 -16.0912
75 25 5 -0.82 9.45655 4.77032 -15.6016
76 26 3 0.41 -1.27633 12.2032 -15.4748
77 26 3 0.41 0.149672 12.153 -14.6743
78 26 5 -0.82 -0.284537 12.3464 -15.6182
79 27 3 0.41 0.455964 12.1288 -10.0051
80 27 3 0.41 1.54371 -0.598602 -9.82062
81 27 5 -0.82 0.589768 -0.923226 -9.67961
82 28 3 0.41 -0.242609 0.546105 -10.3264
83 28 3 0.41 -1.04141 1.34274 -9.2026
84 28 5 -0.82 -0.619349 1.44094 -10.1067
85 29 3 0.41 6.61335 9.47249 21.9187
86 29 3 0.41 7.70607 8.8529 22.8487
87 29 5 -0.82 7.53998 8.98746 21.8432
88 30 3 0.41 12.0335 2.5146 5.58335
89 30 3 0.41 10.4604 1.97646 5.20334
90 30 5 -0.82 11.218 1.96855 5.89665
91 31 3 0.41 9.24247 6.97097 -19.3988
92 31 3 0.41 8.71885 5.43947 -19.3266
93 31 5 -0.82 8.87721 6.21755 -19.9653
94 32 3 0.41 4.63846 -1.28071 -15.7711
95 32 3 0.41 4.28 11.9886 -14.3799
96 32 5 -0.82 3.91821 -1.37704 -15.0573
97 33 3 0.41 7.54444 8.98636 -17.1686
98 33 3 0.41 6.36769 7.96559 -16.921
99 33 5 -0.82 7.13012 8.16597 -17.5067
100 34 3 0.41 1.71364 -1.48247 8.55563
101 34 3 0.41 0.309902 12.0669 7.86895
102 34 5 -0.82 0.757743 -1.21481 8.43326
103 35 3 0.41 1.0205 9.14678 17.4967
104 35 3 0.41 0.730611 10.4773 16.756
105 35 5 -0.82 1.12706 10.1219 17.6492
106 36 3 0.41 -1.49945 11.8416 -4.21185
107 36 3 0.41 11.4854 10.6311 -4.0063
108 36 5 -0.82 12.1729 11.1624 -3.52093
109 37 3 0.41 11.4178 8.10303 23.0546
110 37 3 0.41 11.2386 8.9621 21.8412
111 37 5 -0.82 11.4124 7.97374 22.0507
112 38 3 0.41 10.5053 4.14171 -10.6787
113 38 3 0.41 11.0989 4.81982 -11.9855
114 38 5 -0.82 11.2946 4.07903 -11.3442
115 39 3 0.41 8.03055 3.6609 -18.0524
116 39 3 0.41 9.26575 4.27629 -17.3817
117 39 5 -0.82 8.94996 3.99877 -18.2982
118 40 3 0.41 9.86375 -0.416259 -22.1232
119 40 3 0.41 10.2897 0.826406 -21.1901
120 40 5 -0.82 10.6043 0.250378 -21.9808
121 41 3 0.41 7.48461 7.33823 -12.2928
122 41 3 0.41 8.72832 7.44661 -13.267
123 41 5 -0.82 7.71014 7.42911 -13.2816
124 42 3 0.41 2.82911 4.99493 8.56339
125 42 3 0.41 4.10659 4.93901 7.50374
126 42 5 -0.82 3.188 4.60008 7.66708
127 43 3 0.41 8.72068 12.0453 20.6838
128 43 3 0.41 9.57993 12.4056 19.3518
129 43 5 -0.82 8.63565 12.2244 19.668
130 44 3 0.41 11.5007 11.2624 -22.0845
131 44 3 0.41 11.0154 9.72864 -22.0609
132 44 5 -0.82 10.6509 10.6891 -22.1249
133 45 3 0.41 0.652871 5.35501 7.08758
134 45 3 0.41 1.92249 6.30637 6.82828
135 45 5 -0.82 0.993651 6.08398 6.46357
136 46 3 0.41 5.70571 3.53646 21.8288
137 46 3 0.41 4.81363 2.78776 22.9359
138 46 5 -0.82 5.30148 2.63492 22.0532
139 47 3 0.41 7.74495 7.44805 9.98519
140 47 3 0.41 6.57528 6.41824 9.73672
141 47 5 -0.82 6.77593 7.28914 10.1738
142 48 3 0.41 6.53514 11.4133 8.58043
143 48 3 0.41 7.37837 -1.31152 8.18743
144 48 5 -0.82 7.16043 12.1239 8.99384
145 49 3 0.41 4.9388 4.38995 -0.50195
146 49 3 0.41 5.07257 3.84599 1.08245
147 49 5 -0.82 5.37213 4.53955 0.404772
148 50 3 0.41 1.97675 4.42889 16.8498
149 50 3 0.41 0.356129 4.47138 16.7582
150 50 5 -0.82 1.17211 3.9413 16.4357
151 51 3 0.41 -1.46723 1.02828 0.27175
152 51 3 0.41 -1.08287 2.5127 -0.246046
153 51 5 -0.82 -0.891464 1.8341 0.474235
154 52 3 0.41 0.747889 4.14163 -13.3789
155 52 3 0.41 1.11372 5.72166 -13.8874
156 52 5 -0.82 1.13264 4.7409 -14.1501
157 53 3 0.41 1.96341 8.82333 8.13156
158 53 3 0.41 2.29498 10.1285 8.99353
159 53 5 -0.82 1.62063 9.39432 8.89108
160 54 3 0.41 4.02474 11.1925 13.9461
161 54 3 0.41 3.69727 11.1645 12.4462
162 54 5 -0.82 4.38069 11.5241 13.0569
163 55 3 0.41 10.7668 6.18314 -4.37696
164 55 3 0.41 11.5961 6.31838 -3.15527
165 55 5 -0.82 11.6973 5.96092 -4.08311
166 56 3 0.41 2.77143 0.92721 -0.616847
167 56 3 0.41 3.27978 2.37534 -1.09682
168 56 5 -0.82 2.67751 1.92337 -0.429942
169 57 3 0.41 0.366586 8.51373 -18.8047
170 57 3 0.41 -0.082007 7.12334 -19.3006
171 57 5 -0.82 0.623614 7.82163 -19.4704
172 58 3 0.41 7.99585 0.369658 -17.7983
173 58 3 0.41 7.94258 1.65937 -16.8682
174 58 5 -0.82 8.32661 0.706184 -16.8822
175 59 3 0.41 8.60251 5.57834 -4.51649
176 59 3 0.41 8.66578 6.9567 -3.81946
177 59 5 -0.82 9.0986 6.48534 -4.62762
178 60 3 0.41 2.12329 5.01213 0.058702
179 60 3 0.41 3.16688 5.28252 -1.19353
180 60 5 -0.82 2.87278 5.6452 -0.281008
181 61 3 0.41 8.43791 2.26513 15.865
182 61 3 0.41 7.64461 1.76566 17.1915
183 61 5 -0.82 7.67323 2.52754 16.5163
184 62 3 0.41 12.4773 3.25374 -8.59012
185 62 3 0.41 12.3577 4.32685 -9.79485
186 62 5 -0.82 -1.05081 4.06635 -9.02231
187 63 3 0.41 4.56278 8.76829 19.0805
188 63 3 0.41 5.92948 9.43995 19.3079
189 63 5 -0.82 5.5457 8.58229 18.9876
190 64 3 0.41 5.72922 1.92391 5.89207
191 64 3 0.41 4.39681 0.992975 6.19536
192 64 5 -0.82 4.8366 1.50611 5.49605
193 65 3 0.41 5.6772 7.7238 5.88177
194 65 3 0.41 5.27407 8.73059 4.75691
195 65 5 -0.82 5.31995 8.67784 5.75361
196 66 3 0.41 9.67606 8.91994 1.53526
197 66 3 0.41 9.57718 8.39993 0.00914936
198 66 5 -0.82 9.03549 8.44619 0.882976
199 67 3 0.41 6.87729 12.1531 20.0212
200 67 3 0.41 5.40948 12.4576 20.5109
201 67 5 -0.82 5.87477 11.9919 19.7701
202 68 3 0.41 2.3717 -0.640175 19.6463
203 68 3 0.41 3.81408 -0.893757 19.1374
204 68 5 -0.82 3.31437 -0.310297 19.7773
205 69 3 0.41 11.4032 11.7786 -12.8924
206 69 3 0.41 12.2778 10.4171 -12.9339
207 69 5 -0.82 11.8844 11.1254 -13.5308
208 70 3 0.41 8.47051 0.0142198 -6.41266
209 70 3 0.41 7.0135 -0.748141 -6.74538
210 70 5 -0.82 7.73262 -0.133323 -7.03627
211 71 3 0.41 6.96821 4.28361 11.2323
212 71 3 0.41 7.71181 4.30539 9.7935
213 71 5 -0.82 6.96632 3.83747 10.3318
214 72 3 0.41 3.95687 6.54934 13.0082
215 72 3 0.41 4.25877 7.35443 11.622
216 72 5 -0.82 4.39205 6.48611 12.0971
217 73 3 0.41 0.811067 -0.700784 -4.69559
218 73 3 0.41 -0.786363 -0.323569 -4.86013
219 73 5 -0.82 -0.0519812 -1.0831 -5.00143
220 74 3 0.41 0.0427711 4.49746 9.30751
221 74 3 0.41 -1.06585 4.52519 8.11507
222 74 5 -0.82 -0.0762885 4.79267 8.37306
223 75 3 0.41 -0.734332 8.56237 -11.5656
224 75 3 0.41 -0.659408 10.055 -10.8209
225 75 5 -0.82 -0.83603 9.57404 -11.7304
226 76 3 0.41 9.43055 -0.986979 -9.75762
227 76 3 0.41 9.92418 -1.39688 -8.29004
228 76 5 -0.82 10.2565 -0.98006 -9.15109
229 77 3 0.41 5.4193 2.17143 12.9724
230 77 3 0.41 5.29925 0.894689 11.8808
231 77 5 -0.82 5.77452 1.26345 12.701
232 78 3 0.41 -0.532795 4.61729 -17.1068
233 78 3 0.41 -1.27123 3.27591 -16.7978
234 78 5 -0.82 -1.07682 3.88833 -17.5537
235 79 3 0.41 10.0065 0.996397 10.2533
236 79 3 0.41 9.09689 1.5209 11.5447
237 79 5 -0.82 9.42472 0.726727 11.0384
238 80 3 0.41 9.12559 1.32644 -15.3253
239 80 3 0.41 9.11892 2.82353 -14.952
240 80 5 -0.82 9.38354 1.96669 -14.5757
241 81 3 0.41 5.1338 1.15469 -0.74034
242 81 3 0.41 5.11359 0.349171 0.716468
243 81 5 -0.82 5.60058 0.472636 -0.148309
244 82 3 0.41 -1.46238 4.7113 10.4951
245 82 3 0.41 -0.963908 6.33304 10.4625
246 82 5 -0.82 12.3536 5.65451 10.8305
247 83 3 0.41 -1.44126 7.00928 8.41326
248 83 3 0.41 10.9658 7.41058 8.27976
249 83 5 -0.82 11.778 7.09367 7.77945
250 84 3 0.41 4.06916 1.39354 10.1827
251 84 3 0.41 3.52491 -0.0933086 10.2986
252 84 5 -0.82 3.82376 0.667909 10.8544
253 85 3 0.41 8.46135 7.47316 21.9224
254 85 3 0.41 8.98936 6.67834 23.2456
255 85 5 -0.82 8.91948 6.66428 22.2328
256 86 3 0.41 3.39104 3.04566 -11.9208
257 86 3 0.41 2.18 2.06286 -11.4553
258 86 5 -0.82 3.02961 2.10584 -12.0516
259 87 3 0.41 11.3751 3.79165 1.6533
260 87 3 0.41 11.985 5.1999 1.5134
261 87 5 -0.82 12.2845 4.22846 1.52931
262 88 3 0.41 -0.374498 10.3761 22.9338
263 88 3 0.41 -0.269576 11.6433 22.0449
264 88 5 -0.82 -0.501336 10.6511 21.9929
265 89 3 0.41 0.785119 10.4838 -9.18332
266 89 3 0.41 -0.466097 10.4519 -8.20226
267 89 5 -0.82 -0.25042 10.3225 -9.11583
268 90 3 0.41 5.95248 0.152513 -13.2778
269 90 3 0.41 5.93098 1.01723 -14.642
270 90 5 -0.82 6.49183 0.328291 -14.1254
271 91 3 0.41 8.38175 0.929907 4.58156
272 91 3 0.41 8.13085 2.09598 5.68828
273 91 5 -0.82 8.75654 1.77086 4.97412
274 92 3 0.41 6.0174 11.5541 4.64371
275 92 3 0.41 5.74861 10.2916 5.72485
276 92 5 -0.82 5.9032 11.296 5.63761
277 93 3 0.41 -1.37084 11.2301 13.0152
278 93 3 0.41 11.3288 10.6255 13.6704
279 93 5 -0.82 12.3267 10.3929 13.4844
280 94 3 0.41 6.97301 3.35293 -1.00343
281 94 3 0.41 7.71804 3.27917 0.466311
282 94 5 -0.82 7.84841 3.23529 -0.538056
283 95 3 0.41 1.59358 3.67382 14.8724
284 95 3 0.41 1.89044 2.90925 13.4329
285 95 5 -0.82 1.87329 3.81579 13.8911
286 96 3 0.41 7.13703 -1.48381 11.0535
287 96 3 0.41 5.79041 -1.27105 11.9969
288 96 5 -0.82 6.77883 -1.46277 12.0078
289 97 3 0.41 10.3941 4.19415 22.0178
290 97 3 0.41 11.6677 4.81106 22.7737
291 97 5 -0.82 11.2449 4.74867 21.8557
292 98 3 0.41 10.0433 1.4689 -19.2572
293 98 3 0.41 8.84239 2.47991 -19.6826
294 98 5 -0.82 9.37099 1.66047 -20.0065
295 99 3 0.41 6.00591 8.94288 15.148
296 99 3 0.41 5.05551 8.62744 13.8944
297 99 5 -0.82 5.88541 9.16072 14.1081
298 100 3 0.41 7.31129 2.77544 2.57757
299 100 3 0.41 7.26601 1.12707 2.11013
300 100 5 -0.82 7.72361 2.04109 1.9961
301 101 3 0.41 1.97656 10.4459 3.1678
302 101 3 0.41 3.16627 11.1253 4.12558
303 101 5 -0.82 2.91342 10.2833 3.57365
304 102 3 0.41 4.87935 8.07335 -19.5483
305 102 3 0.41 6.44437 7.84746 -19.0511
306 102 5 -0.82 5.81821 7.90963 -19.8851
307 103 3 0.41 9.66491 10.7824 6.72716
308 103 3 0.41 10.1752 11.8134 5.60465
309 103 5 -0.82 9.3932 11.2385 5.86995
310 104 3 0.41 6.29502 11.4946 -0.889235
311 104 3 0.41 5.81734 -1.00716 -0.942398
312 104 5 -0.82 5.55115 12.0722 -1.27516
313 105 3 0.41 1.05426 4.00623 11.34
314 105 3 0.41 0.242341 2.5344 11.3603
315 105 5 -0.82 0.525156 3.32789 10.7625
316 106 3 0.41 10.2141 3.94487 -3.44468
317 106 3 0.41 11.4019 3.51785 -4.2769
318 106 5 -0.82 10.5084 3.1827 -4.02398
319 107 3 0.41 1.2078 10.6986 -0.781641
320 107 3 0.41 2.32985 9.66538 -1.25224
321 107 5 -0.82 2.17312 10.6601 -1.1459
322 108 3 0.41 3.34684 3.37398 -19.3481
323 108 3 0.41 3.83258 1.88954 -19.148
324 108 5 -0.82 3.93209 2.69348 -19.7958
325 109 3 0.41 12.1151 -0.589243 -22.1536
326 109 3 0.41 -0.240962 -1.08396 -22.3097
327 109 5 -0.82 -1.24015 -1.38877 -22.2154
328 110 3 0.41 -0.479729 11.513 -5.81051
329 110 3 0.41 -0.262191 10.005 -6.38033
330 110 5 -0.82 -0.773807 10.8464 -6.49812
331 111 3 0.41 5.59323 1.87793 -3.99912
332 111 3 0.41 7.06573 1.66229 -4.60512
333 111 5 -0.82 6.06534 1.68314 -4.90737
334 112 3 0.41 0.669581 3.08954 -15.1201
335 112 3 0.41 1.52721 1.71178 -15.1618
336 112 5 -0.82 1.04825 2.37616 -15.7394
337 113 3 0.41 4.18046 3.48882 19.3769
338 113 3 0.41 3.12605 3.82499 20.568
339 113 5 -0.82 3.40182 3.12678 19.9054
340 114 3 0.41 8.9487 10.6952 -16.5802
341 114 3 0.41 7.41576 11.3049 -16.6724
342 114 5 -0.82 8.22256 10.9784 -17.2594
343 115 3 0.41 9.37564 3.23955 -7.4813
344 115 3 0.41 9.56008 3.50926 -5.91466
345 115 5 -0.82 9.0311 3.83784 -6.71343
346 116 3 0.41 9.82066 12.2257 15.8373
347 116 3 0.41 10.4506 -1.28018 17.0827
348 116 5 -0.82 9.93741 -0.850661 16.2632
349 117 3 0.41 8.09404 2.59288 -21.7889
350 117 3 0.41 9.63569 2.9011 -22.1857
351 117 5 -0.82 8.67904 3.2258 -22.2919
352 118 3 0.41 7.56798 8.77786 -2.40146
353 118 3 0.41 7.57545 7.24154 -1.93279
354 118 5 -0.82 7.62935 7.80522 -2.77251
355 119 3 0.41 4.66709 12.3525 -2.82138
356 119 3 0.41 3.89437 -0.459294 -3.51954
357 119 5 -0.82 4.75489 -1.03828 -3.63077
358 120 3 0.41 10.0854 0.831997 15.8882
359 120 3 0.41 10.3513 2.33063 16.2452
360 120 5 -0.82 10.0949 1.76162 15.4254
361 121 3 0.41 8.6574 4.19342 -12.6758
362 121 3 0.41 9.42053 5.02693 -13.9172
363 121 5 -0.82 9.03848 5.10105 -12.9509
364 122 3 0.41 10.2753 9.21891 12.0783
365 122 3 0.41 11.4584 8.13857 12.0411
366 122 5 -0.82 10.9304 8.74146 11.4482
367 123 3 0.41 6.94987 0.7929 -0.842103
368 123 3 0.41 8.11471 1.77257 -1.25386
369 123 5 -0.82 7.83916 0.776764 -1.33731
370 124 3 0.41 -1.2212 9.81025 0.277277
371 124 3 0.41 0.335645 9.22598 0.353106
372 124 5 -0.82 -0.223107 10.0196 0.0407862
373 125 3 0.41 5.43722 6.00111 -21.9614
374 125 3 0.41 5.3245 7.40175 -21.2088
375 125 5 -0.82 4.87862 6.87178 -21.9703
376 126 3 0.41 5.08037 2.5967 -10.7881
377 126 3 0.41 6.62251 2.50274 -10.4013
378 126 5 -0.82 5.9682 2.93055 -11.0966
379 127 3 0.41 1.38776 11.8029 13.2334
380 127 3 0.41 1.87807 11.7008 14.8214
381 127 5 -0.82 1.36559 12.2074 14.171
382 128 3 0.41 10.6684 5.35456 11.4436
383 128 3 0.41 10.1676 4.53738 12.8066
384 128 5 -0.82 9.86707 5.09097 11.9926
385 129 3 0.41 12.3019 10.2524 10.5458
386 129 3 0.41 -0.774684 10.3062 9.41858
387 129 5 -0.82 -0.819896 10.6386 10.4026
388 130 3 0.41 2.16633 -1.02916 -7.44457
389 130 3 0.41 3.47957 12.4806 -6.97168
390 130 5 -0.82 2.56271 12.068 -7.15939
391 131 3 0.41 6.02275 10.617 -19.1121
392 131 3 0.41 7.55776 10.5633 -18.6893
393 131 5 -0.82 6.93589 10.5118 -19.5162
394 132 3 0.41 1.12157 3.88842 -3.15724
395 132 3 0.41 0.900423 4.64268 -1.7834
396 132 5 -0.82 1.43444 3.86975 -2.179
397 133 3 0.41 2.24409 3.25825 5.35593
398 133 3 0.41 3.71705 2.57715 5.02392
399 133 5 -0.82 2.9313 3.1483 4.63442
400 134 3 0.41 3.66161 6.13496 1.25975
401 134 3 0.41 3.71709 5.91669 2.8678
402 134 5 -0.82 3.62405 6.63622 2.14395
403 135 3 0.41 6.20456 6.33403 -15.2382
404 135 3 0.41 7.4209 6.63853 -16.186
405 135 5 -0.82 6.87675 5.89892 -15.8153
406 136 3 0.41 0.286374 11.8699 11.0605
407 136 3 0.41 1.53613 -1.28851 10.7023
408 136 5 -0.82 0.910012 -1.46886 11.4586
409 137 3 0.41 8.57418 -0.155624 -0.031701
410 137 3 0.41 10.046 -0.55901 0.497839
411 137 5 -0.82 9.0218 -0.719242 0.672791
412 138 3 0.41 6.91661 2.13661 9.8456
413 138 3 0.41 7.83015 0.799219 10.1597
414 138 5 -0.82 7.0906 1.19494 9.57917
415 139 3 0.41 6.56783 5.5473 20.7439
416 139 3 0.41 5.78516 5.69444 22.1626
417 139 5 -0.82 6.42477 5.0741 21.6331
418 140 3 0.41 11.2209 10.3601 -6.6056
419 140 3 0.41 9.63732 10.42 -6.38146
420 140 5 -0.82 10.3527 10.2982 -7.06974
421 141 3 0.41 7.48094 8.33399 -21.2576
422 141 3 0.41 8.91109 8.85108 -21.5721
423 141 5 -0.82 8.10362 8.46272 -22.0554
424 142 3 0.41 12.2875 4.87127 -14.4512
425 142 3 0.41 11.6875 6.1151 -15.3243
426 142 5 -0.82 11.9917 5.8632 -14.3839
427 143 3 0.41 12.4868 -0.881517 14.9084
428 143 3 0.41 11.2339 -0.705892 13.8689
429 143 5 -0.82 12.2669 -0.607299 13.9147
430 144 3 0.41 6.54047 2.07005 -18.9995
431 144 3 0.41 5.2981 1.08093 -18.3143
432 144 5 -0.82 6.28395 1.12936 -18.676
433 145 3 0.41 12.3861 10.5865 -19.1001
434 145 3 0.41 -1.22147 11.6527 -20.2882
435 145 5 -0.82 -1.0633 10.6995 -19.9439
436 146 3 0.41 8.69993 2.114 -13.1074
437 146 3 0.41 7.38444 2.1555 -12.185
438 146 5 -0.82 8.35866 2.06999 -12.1376
439 147 3 0.41 6.9699 11.002 2.84513
440 147 3 0.41 5.75866 11.42 2.18345
441 147 5 -0.82 6.37243 11.8164 2.88293
442 148 3 0.41 8.12583 3.3166 20.6116
443 148 3 0.41 8.55257 3.73695 19.0923
444 148 5 -0.82 8.0252 3.01816 19.6258
445 149 3 0.41 9.74161 12.1506 -5.46795
446 149 3 0.41 10.769 -0.54724 -5.49835
447 149 5 -0.82 10.0217 -1.04218 -6.01333
448 150 3 0.41 -0.920512 3.03949 -13.581
449 150 3 0.41 11.947 2.48163 -14.4407
450 150 5 -0.82 -1.36197 3.19057 -14.5079
451 151 3 0.41 -1.20914 0.435002 11.2916
452 151 3 0.41 12.327 1.49853 12.3267
453 151 5 -0.82 -0.838375 1.01539 12.0393
454 152 3 0.41 8.29231 4.24366 3.58717
455 152 3 0.41 9.46057 3.2028 4.17899
456 152 5 -0.82 9.325 4.14474 3.77231
457 153 3 0.41 -0.0585492 0.386816 15.871
458 153 3 0.41 1.25524 1.27799 15.9197
459 153 5 -0.82 0.465401 1.09524 15.3259
460 154 3 0.41 9.60022 8.96729 -18.6808
461 154 3 0.41 10.0108 10.1663 -19.7438
462 154 5 -0.82 9.68282 9.18149 -19.6528
463 155 3 0.41 3.25675 5.62967 18.0174
464 155 3 0.41 4.21876 4.50665 17.4227
465 155 5 -0.82 3.36192 5.0212 17.175
466 156 3 0.41 3.754 8.47118 -1.39753
467 156 3 0.41 2.88026 7.26641 -0.790983
468 156 5 -0.82 2.79087 8.08074 -1.4247
469 157 3 0.41 10.3302 -1.2784 22.1747
470 157 3 0.41 11.4996 -0.684092 23.14
471 157 5 -0.82 11.3405 -1.26451 22.3069
472 158 3 0.41 2.07505 9.18043 -5.95685
473 158 3 0.41 1.77979 10.6239 -6.81417
474 158 5 -0.82 1.67653 9.61035 -6.75792
475 159 3 0.41 10.9483 7.84801 -12.0412
476 159 3 0.41 11.2241 7.25819 -13.5078
477 159 5 -0.82 10.593 7.83236 -12.9814
478 160 3 0.41 11.7307 2.29808 9.40466
479 160 3 0.41 10.7019 3.60143 9.45921
480 160 5 -0.82 11.2142 2.92704 10.0429
481 161 3 0.41 2.57876 12.381 -1.1621
482 161 3 0.41 3.85925 -0.797655 -0.922549
483 161 5 -0.82 2.91272 -0.690357 -1.15476
484 162 3 0.41 4.21965 4.50987 -5.0811
485 162 3 0.41 4.0535 5.73721 -4.07655
486 162 5 -0.82 3.6052 5.27962 -4.87959
487 163 3 0.41 -0.0586233 2.24867 -12.406
488 163 3 0.41 -0.836727 3.50266 -11.632
489 163 5 -0.82 -0.0440431 3.28045 -12.1834
490 164 3 0.41 4.83379 9.75759 0.133188
491 164 3 0.41 6.34921 9.54881 -0.156867
492 164 5 -0.82 5.43231 9.14074 -0.350825
493 165 3 0.41 6.046 6.89659 16.2395
494 165 3 0.41 5.28569 7.71721 17.398
495 165 5 -0.82 5.72258 7.81232 16.4839
496 166 3 0.41 7.89231 4.09846 16.5149
497 166 3 0.41 6.67251 5.06647 16.2865
498 166 5 -0.82 7.58765 5.08473 16.7677
499 167 3 0.41 0.369879 4.79535 -9.64444
500 167 3 0.41 1.54063 5.91581 -9.41497
501 167 5 -0.82 1.05899 5.34535 -10.145
502 168 3 0.41 5.16768 11.504 -9.29008
503 168 3 0.41 4.70467 -0.87219 -9.1922
504 168 5 -0.82 5.33236 12.4751 -9.70012
505 169 3 0.41 4.55732 9.14733 2.79077
506 169 3 0.41 5.21834 7.71968 2.64839
507 169 5 -0.82 5.30978 8.59885 3.13477
508 170 3 0.41 1.3015 0.404954 -8.24928
509 170 3 0.41 0.381929 -0.0919427 -7.0151
510 170 5 -0.82 1.2134 0.418676 -7.23261
511 171 3 0.41 4.08044 2.45434 15.2949
512 171 3 0.41 4.07583 3.32927 13.944
513 171 5 -0.82 4.70369 2.8186 14.5799
514 172 3 0.41 1.31909 -1.07561 22.2155
515 172 3 0.41 0.244035 -1.14812 23.5066
516 172 5 -0.82 0.383561 -0.900482 22.5318
517 173 3 0.41 5.99427 0.473015 8.69601
518 173 3 0.41 4.84286 -0.550046 8.60146
519 173 5 -0.82 5.19853 0.240835 8.08116
520 174 3 0.41 -0.605614 4.04009 19.7922
521 174 3 0.41 11.9919 3.77185 20.4897
522 174 5 -0.82 12.4102 3.82724 19.5232
523 175 3 0.41 -0.11516 0.103272 0.729386
524 175 3 0.41 0.888765 -0.80752 -0.230676
525 175 5 -0.82 0.79738 -0.357847 0.676186
526 176 3 0.41 0.16062 6.10618 -2.55026
527 176 3 0.41 1.12553 6.82089 -3.67407
528 176 5 -0.82 0.356457 6.17197 -3.54105
529 177 3 0.41 5.97928 9.06303 7.51053
530 177 3 0.41 5.18445 10.1305 8.4792
531 177 5 -0.82 6.07373 9.77968 8.20784
532 178 3 0.41 1.37401 12.3373 -21.1518
533 178 3 0.41 1.94078 -0.401961 -22.1755
534 178 5 -0.82 1.45847 -1.30463 -22.1177
535 179 3 0.41 2.67808 4.05773 -21.4845
536 179 3 0.41 1.16861 4.28187 -21.8152
537 179 5 -0.82 1.96811 3.70508 -22.0927
538 180 3 0.41 9.63683 4.67319 2.17989
539 180 3 0.41 8.9605 5.76934 1.30289
540 180 5 -0.82 9.43536 4.89841 1.21762
541 181 3 0.41 3.04937 0.365893 -17.6559
542 181 3 0.41 3.94064 1.47831 -16.815
543 181 5 -0.82 3.86803 0.968899 -17.6833
544 182 3 0.41 2.7924 1.94513 -21.8814
545 182 3 0.41 2.44768 0.85186 -20.847
546 182 5 -0.82 2.57664 0.978223 -21.8404
547 183 3 0.41 -0.0339085 8.10363 -14.1669
548 183 3 0.41 1.08624 7.70246 -13.0688
549 183 5 -0.82 0.429539 7.30582 -13.7778
550 184 3 0.41 11.0811 12.4401 3.37181
551 184 3 0.41 9.90791 -0.647714 4.125
552 184 5 -0.82 10.8733 -1.05607 4.23726
553 185 3 0.41 0.189196 6.37909 -11.0737
554 185 3 0.41 -0.455961 6.97178 -12.3511
555 185 5 -0.82 -0.657771 6.90156 -11.3696
556 186 3 0.41 10.4614 0.652124 -1.72754
557 186 3 0.41 10.1771 -0.928104 -1.98413
558 186 5 -0.82 10.7821 -0.202492 -2.19399
559 187 3 0.41 7.28431 7.3445 3.50402
560 187 3 0.41 7.63098 8.69431 4.21435
561 187 5 -0.82 7.87168 7.75354 4.23701
562 188 3 0.41 -0.598861 9.90858 -21.546
563 188 3 0.41 0.571752 8.73801 -21.2367
564 188 5 -0.82 0.109423 9.27868 -22.0031
565 189 3 0.41 5.71716 11.5859 17.9042
566 189 3 0.41 6.42308 10.2877 17.368
567 189 5 -0.82 5.70829 10.9536 17.0949
568 190 3 0.41 4.90458 0.289049 16.5426
569 190 3 0.41 6.15704 0.227324 17.5912
570 190 5 -0.82 5.18971 0.447135 17.5293
571 191 3 0.41 3.00628 10.1335 15.8565
572 191 3 0.41 4.33572 10.9899 16.2834
573 191 5 -0.82 3.40368 11.0621 15.8022
574 192 3 0.41 0.334367 9.60636 19.1485
575 192 3 0.41 -0.432706 9.83882 20.5674
576 192 5 -0.82 -0.436281 9.26632 19.7362
577 193 3 0.41 9.01302 10.6688 11.5205
578 193 3 0.41 9.27314 11.6311 12.7609
579 193 5 -0.82 9.09974 10.6673 12.5188
580 194 3 0.41 6.62856 7.0963 19.0828
581 194 3 0.41 7.32605 5.79913 18.2815
582 194 5 -0.82 7.01109 6.18225 19.2221
583 195 3 0.41 10.2627 1.28807 7.06682
584 195 3 0.41 8.79638 1.01989 7.54858
585 195 5 -0.82 9.77311 0.798553 7.82537
586 196 3 0.41 12.3771 2.63994 -22.0197
587 196 3 0.41 11.5388 3.59158 -21.0695
588 196 5 -0.82 11.683 3.3579 -22.0381
589 197 3 0.41 11.4753 10.789 8.41454
590 197 3 0.41 11.0853 9.38837 7.72996
591 197 5 -0.82 11.7899 9.79336 8.34727
592 198 3 0.41 3.65123 1.71012 -14.956
593 198 3 0.41 4.33726 3.13922 -15.146
594 198 5 -0.82 4.56863 2.13782 -15.2934
595 199 3 0.41 7.43769 9.66837 -13.7451
596 199 3 0.41 7.57991 11.1443 -14.2548
597 199 5 -0.82 7.0912 10.285 -14.463
598 200 3 0.41 0.391097 10.9141 5.95026
599 200 3 0.41 1.63838 9.95152 6.19167
600 200 5 -0.82 1.38559 10.943 6.23732
601 201 3 0.41 9.01921 -0.261458 13.6309
602 201 3 0.41 9.83106 -0.115634 12.3462
603 201 5 -0.82 9.7739 -0.658741 13.208
604 202 3 0.41 -0.737612 -0.520196 -12.2252
605 202 3 0.41 0.674558 -0.104229 -13.0287
606 202 5 -0.82 -0.213072 0.257271 -12.6751
607 203 3 0.41 6.90771 -1.18306 5.99446
608 203 3 0.41 8.44991 -1.2723 6.11856
609 203 5 -0.82 7.71981 -0.557985 6.19591
610 204 3 0.41 3.82764 -0.428681 -19.8202
611 204 3 0.41 4.1291 12.042 -19.5596
612 204 5 -0.82 4.43338 -1.13454 -20.0451
613 205 3 0.41 -1.1654 2.14296 -6.67104
614 205 3 0.41 -1.40357 0.859957 -7.41648
615 205 5 -0.82 12.3033 1.85241 -7.49096
616 206 3 0.41 2.20406 6.76274 14.7121
617 206 3 0.41 2.61263 5.35377 14.0961
618 206 5 -0.82 2.99836 6.29303 14.3016
619 207 3 0.41 11.1074 10.7419 -1.88572
620 207 3 0.41 10.4969 10.8493 -0.443991
621 207 5 -0.82 10.267 11.0063 -1.41096
622 208 3 0.41 3.14658 8.91231 11.9776
623 208 3 0.41 2.68517 9.03537 10.4663
624 208 5 -0.82 3.53583 8.78002 11.0203
625 209 3 0.41 6.30117 9.37841 -11.5412
626 209 3 0.41 5.13826 8.38347 -11.2738
627 209 5 -0.82 6.14975 8.47055 -11.1637
628 210 3 0.41 11.1558 7.71337 14.6955
629 210 3 0.41 11.9831 6.4917 14.0945
630 210 5 -0.82 11.5212 7.39455 13.8221
631 211 3 0.41 1.989 -0.740228 4.61924
632 211 3 0.41 0.781311 -1.37579 3.76762
633 211 5 -0.82 1.08344 -0.544676 4.24165
634 212 3 0.41 4.66436 -1.1396 14.4383
635 212 3 0.41 4.85637 0.447457 14.0834
636 212 5 -0.82 4.38003 -0.19192 14.7283
637 213 3 0.41 9.86651 9.38057 -4.34116
638 213 3 0.41 10.8928 8.91039 -3.22197
639 213 5 -0.82 10.788 9.04659 -4.24799
640 214 3 0.41 2.38675 7.63354 -15.9163
641 214 3 0.41 1.4224 6.73103 -16.6048
642 214 5 -0.82 2.40677 6.98818 -16.6795
643 215 3 0.41 4.09788 9.28649 -5.28779
644 215 3 0.41 5.65511 9.4463 -5.56958
645 215 5 -0.82 4.75663 9.60095 -6.00638
646 216 3 0.41 8.82126 6.17779 5.60504
647 216 3 0.41 9.70831 5.05384 5.05697
648 216 5 -0.82 9.71575 5.70658 5.81651
649 217 3 0.41 8.57394 4.7391 -9.41531
650 217 3 0.41 9.25394 3.33077 -9.3779
651 217 5 -0.82 9.16598 4.15568 -9.97981
652 218 3 0.41 -0.263832 10.1546 14.5188
653 218 3 0.41 0.389191 8.74437 15.0785
654 218 5 -0.82 0.37626 9.76185 15.2117
655 219 3 0.41 1.84475 0.14998 -3.30731
656 219 3 0.41 2.61493 0.681373 -4.55483
657 219 5 -0.82 2.31799 -0.184766 -4.15624
658 220 3 0.41 5.96191 2.93499 17.4176
659 220 3 0.41 6.18246 3.60024 18.7648
660 220 5 -0.82 5.50872 3.62685 18.0353
661 221 3 0.41 3.09423 5.91461 -12.0338
662 221 3 0.41 2.45409 4.8156 -11.0748
663 221 5 -0.82 3.1345 4.91462 -11.8321
664 222 3 0.41 5.67921 2.08185 -22.0762
665 222 3 0.41 4.52556 2.96848 -21.1832
666 222 5 -0.82 5.04483 2.87604 -22.095
667 223 3 0.41 3.63807 0.440915 -8.30109
668 223 3 0.41 3.15841 0.898785 -9.65884
669 223 5 -0.82 3.27024 0.0432306 -9.15145
670 224 3 0.41 8.78708 -0.330544 2.37653
671 224 3 0.41 7.73151 -1.23756 3.19218
672 224 5 -0.82 8.49136 -0.60377 3.34202
673 225 3 0.41 3.96438 11.8319 1.0206
674 225 3 0.41 3.83953 10.6053 2.18531
675 225 5 -0.82 4.33144 10.9408 1.32958
676 226 3 0.41 8.71364 7.62296 14.3468
677 226 3 0.41 8.46905 6.38003 15.3025
678 226 5 -0.82 8.70479 7.35748 15.3299
679 227 3 0.41 9.58056 8.88924 19.8896
680 227 3 0.41 8.18642 8.38296 20.3171
681 227 5 -0.82 8.81781 8.32468 19.5391
682 228 3 0.41 5.32168 4.13592 -13.9205
683 228 3 0.41 6.0626 3.36428 -12.7052
684 228 5 -0.82 6.18697 3.70506 -13.6567
685 229 3 0.41 -0.629093 0.676336 -21.4754
686 229 3 0.41 0.328424 1.95486 -21.4514
687 229 5 -0.82 -0.317188 1.43194 -22.0656
688 230 3 0.41 1.75289 2.75242 -6.89648
689 230 3 0.41 1.60807 4.32266 -6.7227
690 230 5 -0.82 2.07966 3.62525 -7.27722
691 231 3 0.41 12.2684 5.22291 -7.89799
692 231 3 0.41 11.0504 5.86386 -7.24598
693 231 5 -0.82 11.9436 5.50412 -6.9831
694 232 3 0.41 2.24513 11.2463 -2.91371
695 232 3 0.41 2.5978 11.9202 -4.26276
696 232 5 -0.82 2.42874 10.978 -3.90093
697 233 3 0.41 2.0141 6.0747 -5.87144
698 233 3 0.41 1.2295 6.57153 -7.28205
699 233 5 -0.82 1.19727 5.9978 -6.39775
700 234 3 0.41 0.824834 11.9448 1.60052
701 234 3 0.41 -0.399882 11.0052 2.04258
702 234 5 -0.82 0.488001 11.3569 2.40104
703 235 3 0.41 0.633066 6.76703 9.40477
704 235 3 0.41 0.283027 8.37918 9.40543
705 235 5 -0.82 0.0666011 7.47036 9.83769
706 236 3 0.41 1.92527 2.99844 0.812549
707 236 3 0.41 0.421232 3.90282 0.682251
708 236 5 -0.82 1.3529 3.81952 1.00951
709 237 3 0.41 10.1046 -1.47218 10.4372
710 237 3 0.41 8.69926 12.2209 9.62811
711 237 5 -0.82 9.53182 11.7979 10.0534
712 238 3 0.41 10.8141 8.8033 3.47525
713 238 3 0.41 9.48784 7.84629 3.62584
714 238 5 -0.82 10.4482 7.8503 3.32
715 239 3 0.41 12.2714 -0.833234 -0.281836
716 239 3 0.41 11.8152 -1.42353 1.29135
717 239 5 -0.82 11.7409 -0.690474 0.566685
718 240 3 0.41 0.00115083 -0.74081 -2.15102
719 240 3 0.41 -0.947385 12.0623 -2.32957
720 240 5 -0.82 -0.434057 -1.4776 -1.60468
721 241 3 0.41 1.928 2.13674 3.65911
722 241 3 0.41 0.961401 0.819201 3.18579
723 241 5 -0.82 1.15968 1.86446 3.08931
724 242 3 0.41 9.16086 10.8629 3.04615
725 242 3 0.41 8.53501 10.387 4.50528
726 242 5 -0.82 8.49243 10.2848 3.47304
727 243 3 0.41 1.25893 -0.345755 -18.5608
728 243 3 0.41 1.04574 1.04035 -19.2432
729 243 5 -0.82 1.58348 0.178649 -19.3994
730 244 3 0.41 5.19126 10.2182 23.0693
731 244 3 0.41 4.37334 10.902 21.8883
732 244 5 -0.82 5.14432 10.2312 22.047
733 245 3 0.41 2.51635 8.19237 -22.0604
734 245 3 0.41 3.18059 6.8794 -21.9178
735 245 5 -0.82 2.28098 7.26372 -22.1741
736 246 3 0.41 11.7563 12.3392 19.0147
737 246 3 0.41 11.1702 10.9052 18.4483
738 246 5 -0.82 11.034 11.9246 18.4046
739 247 3 0.41 9.28302 10.2802 16.2225
740 247 3 0.41 9.19463 10.363 14.5666
741 247 5 -0.82 9.77345 10.5895 15.3823
742 248 3 0.41 5.42011 10.2506 10.7878
743 248 3 0.41 6.3424 8.9726 10.5917
744 248 5 -0.82 6.18912 9.7554 11.2247
745 249 3 0.41 -1.49902 0.477076 -13.7303
746 249 3 0.41 11.0549 0.926949 -13.7315
747 249 5 -0.82 11.7696 0.631348 -14.3956
748 250 3 0.41 0.450673 6.79975 23.0829
749 250 3 0.41 -0.475676 7.43308 21.8696
750 250 5 -0.82 0.422178 6.98186 22.0595
751 251 3 0.41 2.18314 5.75571 10.8821
752 251 3 0.41 3.10927 6.66145 9.95794
753 251 5 -0.82 2.57054 5.85639 9.89854