ITEM: TIMESTEP
65000
ITEM: NUMBER OF ATOMS
1360
ITEM: BOX BOUNDS pp pp pp
-1.5000000000000000e+00 1.2500000000000000e+01
-1.5000000000000000e+00 1.2500000000000000e+01
-2.7500000000000000e+01 2.7500000000000000e+01
ITEM: ATOMS id mol type q x y z
1 1 3 0.41 9.78274 0.331761 3.56521
2 1 3 0.41 9.81717 0.933955 5.07508
3 1 5 -0.82 9.55332 1.1824 4.11223
4 2 3 0.41 11.8051 8.12085 -16.3166
5 2 3 0.41 -0.793238 7.30401 -16.8849
6 2 5 -0.82 12.1905 7.37073 -16.8911
7 3 3 0.41 11.1893 0.922351 18.5774
8 3 3 0.41 11.0864 -0.203813 17.4203
9 3 5 -0.82 11.6241 0.0657185 18.1938
10 4 3 0.41 10.7926 10.7233 -19.5937
11 4 3 0.41 9.8715 10.7058 -20.8644
12 4 5 -0.82 10.4188 11.3456 -20.3216
13 5 3 0.41 -1.2227 4.44963 -15.6113
14 5 3 0.41 -0.185361 3.45593 -15.0696
15 5 5 -0.82 -0.600874 4.35398 -14.8541
16 6 3 0.41 5.00888 11.6997 -22.2249
17 6 3 0.41 5.81468 -1.2054 -21.3279
18 6 5 -0.82 5.13851 -1.28936 -22.0838
19 7 3 0.41 11.7349 8.2302 -13.0543
20 7 3 0.41 -1.05251 7.14103 -12.7601
21 7 5 -0.82 -1.48982 7.75153 -13.449
22 8 3 0.41 11.5489 10.8172 16.9655
23 8 3 0.41 11.9854 12.2792 16.3848
24 8 5 -0.82 12.3444 11.3628 16.7142
25 9 3 0.41 6.89811 1.88972 -18.454
26 9 3 0.41 5.87603 0.708033 -18.7035
27 9 5 -0.82 6.72189 1.14713 -19.1566
28 10 3 0.41 5.76006 12.306 7.18172
29 10 3 0.41 6.10367 -1.33805 5.53509
30 10 5 -0.82 6.46081 -1.38553 6.50082
31 11 3 0.41 -0.576676 -0.442813 -11.3565
32 11 3 0.41 11.998 0.238783 -11.1696
33 11 5 -0.82 -1.12338 0.024165 -10.6919
34 12 3 0.41 -0.643465 8.86793 -14.4983
35 12 3 0.41 0.931054 9.07745 -14.8226
36 12 5 -0.82 0.0238985 9.36778 -15.0874
37 13 3 0.41 -0.695056 -0.801898 8.14424
38 13 3 0.41 0.251051 0.359063 7.39544
39 13 5 -0.82 0.226438 -0.334001 8.15332
40 14 3 0.41 8.50694 6.35506 -19.2136
41 14 3 0.41 9.5937 6.64708 -18.1651
42 14 5 -0.82 9.38595 6.83456 -19.1168
43 15 3 0.41 5.89461 6.24131 1.9426
44 15 3 0.41 6.38586 5.32084 0.803386
45 15 5 -0.82 6.72973 5.62467 1.72463
46 16 3 0.41 2.80527 2.24638 10.1085
47 16 3 0.41 3.04715 3.71989 9.36786
48 16 5 -0.82 3.47778 3.01785 9.9419
49 17 3 0.41 7.53506 11.8978 21.3056
50 17 3 0.41 6.39121 10.7504 21.1018
51 17 5 -0.82 6.84721 11.5189 20.6136
52 18 3 0.41 4.3992 -1.11071 -18.9779
53 18 3 0.41 3.28112 -1.06159 -20.2476
54 18 5 -0.82 3.63012 -0.578239 -19.4388
55 19 3 0.41 6.71256 9.08758 4.9754
56 19 3 0.41 5.36079 9.25983 4.15563
57 19 5 -0.82 5.73172 9.16992 5.09316
58 20 3 0.41 -0.209374 8.99904 -19.608
59 20 3 0.41 0.241306 7.53092 -19.2275
60 20 5 -0.82 -0.36145 8.01867 -19.9081
61 21 3 0.41 6.59067 3.12299 20.4849
62 21 3 0.41 5.77908 2.83605 19.176
63 21 5 -0.82 6.70625 3.0265 19.4952
64 22 3 0.41 5.14646 12.2871 -17.1663
65 22 3 0.41 6.10098 -0.540795 -16.9264
66 22 5 -0.82 5.80663 -1.1411 -17.6511
67 23 3 0.41 8.3456 11.5331 -15.5376
68 23 3 0.41 7.38003 11.6139 -16.8741
69 23 5 -0.82 8.24452 11.9693 -16.4677
70 24 3 0.41 10.8294 6.27226 -19.7687
71 24 3 0.41 12.3816 6.88888 -19.618
72 24 5 -0.82 11.8494 6.10417 -19.9369
73 25 3 0.41 1.36618 8.01023 -17.5648
74 25 3 0.41 1.22503 6.64346 -16.8845
75 25 5 -0.82 0.927564 7.12637 -17.747
76 26 3 0.41 7.88238 9.60117 -17.5594
77 26 3 0.41 9.20679 9.75845 -18.4916
78 26 5 -0.82 8.17407 9.81953 -18.5104
79 27 3 0.41 11.9769 12.1293 -11.0033
80 27 3 0.41 12.4544 10.9694 -12.0327
81 27 5 -0.82 11.734 11.6709 -11.8785
82 28 3 0.41 7.5757 2.68976 -11.9619
83 28 3 0.41 7.9619 1.50603 -11.0625
84 28 5 -0.82 7.55009 1.68288 -11.9953
85 29 3 0.41 8.13968 9.00241 22.774
86 29 3 0.41 8.70886 7.79192 21.8512
87 29 5 -0.82 8.37808 8.75727 21.8201
88 30 3 0.41 7.258 0.24727 5.48765
89 30 3 0.41 7.05689 1.30427 6.71048
90 30 5 -0.82 7.41397 1.23335 5.76271
91 31 3 0.41 0.815716 4.36722 -19.5936
92 31 3 0.41 2.13208 4.89274 -18.8692
93 31 5 -0.82 1.56541 5.02031 -19.7439
94 32 3 0.41 -1.25119 10.6447 -17.353
95 32 3 0.41 -0.175428 9.7211 -16.8123
96 32 5 -0.82 -0.67893 9.90748 -17.6808
97 33 3 0.41 2.87081 8.52504 -13.6325
98 33 3 0.41 1.53471 8.64011 -12.7031
99 33 5 -0.82 1.97393 8.05906 -13.4287
100 34 3 0.41 11.853 8.94957 8.7076
101 34 3 0.41 11.6636 8.35393 7.3357
102 34 5 -0.82 11.5581 8.07734 8.31433
103 35 3 0.41 -0.90829 9.99041 16.8388
104 35 3 0.41 0.287301 9.23429 16.0915
105 35 5 -0.82 -0.294438 9.15322 16.9294
106 36 3 0.41 6.30076 0.856555 -5.61617
107 36 3 0.41 7.09395 -0.206946 -4.82903
108 36 5 -0.82 6.90692 0.0612422 -5.78673
109 37 3 0.41 11.874 6.76381 22.977
110 37 3 0.41 11.6395 8.04213 21.958
111 37 5 -0.82 11.6544 7.01447 21.9941
112 38 3 0.41 7.08699 4.23105 -14.4883
113 38 3 0.41 8.59333 4.24648 -14.9663
114 38 5 -0.82 7.75217 4.79169 -14.9885
115 39 3 0.41 1.69126 3.51675 -16.5166
116 39 3 0.41 2.22467 5.00433 -16.1564
117 39 5 -0.82 2.40206 4.22182 -16.7064
118 40 3 0.41 9.52157 2.55039 -21.3948
119 40 3 0.41 9.66117 1.04855 -21.8929
120 40 5 -0.82 9.58204 1.98106 -22.2328
121 41 3 0.41 3.41388 9.19886 -17.1006
122 41 3 0.41 2.50558 10.0025 -16.0754
123 41 5 -0.82 2.44643 9.31068 -16.7977
124 42 3 0.41 9.96183 5.58282 6.25003
125 42 3 0.41 10.9015 6.37821 7.10621
126 42 5 -0.82 10.5668 5.44929 7.08301
127 43 3 0.41 8.30355 11.6909 19.4693
128 43 3 0.41 8.62135 12.1573 18.0159
129 43 5 -0.82 8.88363 11.3799 18.6704
130 44 3 0.41 7.33349 10.2578 -22.121
131 44 3 0.41 8.4876 9.3223 -22.2655
132 44 5 -0.82 8.366 10.3186 -22.1141
133 45 3 0.41 12.1439 8.05868 5.44936
134 45 3 0.41 11.5817 9.50353 5.34942
135 45 5 -0.82 11.2621 8.56871 5.54528
136 46 3 0.41 3.92673 1.2702 23.0869
137 46 3 0.41 2.92367 2.01757 21.9603
138 46 5 -0.82 3.80057 1.52134 22.1403
139 47 3 0.41 6.0476 9.38312 7.06025
140 47 3 0.41 7.0159 9.98022 8.26161
141 47 5 -0.82 6.00559 9.79783 7.97444
142 48 3 0.41 2.84655 11.1502 9.99288
143 48 3 0.41 3.41682 9.72057 9.5882
144 48 5 -0.82 3.50149 10.4683 10.2718
145 49 3 0.41 11.3142 5.47598 -1.61475
146 49 3 0.41 10.593 5.909 -0.207081
147 49 5 -0.82 11.1966 5.21211 -0.632001
148 50 3 0.41 0.573012 3.56371 16.4949
149 50 3 0.41 1.45334 3.93352 17.8135
150 50 5 -0.82 0.652796 3.40802 17.5173
151 51 3 0.41 9.41236 2.56354 0.294348
152 51 3 0.41 8.40902 1.77456 1.13765
153 51 5 -0.82 9.25059 1.63961 0.625994
154 52 3 0.41 9.22494 8.4167 -13.2256
155 52 3 0.41 9.62901 9.48372 -12.0187
156 52 5 -0.82 10.0468 8.97141 -12.8364
157 53 3 0.41 10.797 9.10674 16.3826
158 53 3 0.41 9.5771 8.31188 15.6171
159 53 5 -0.82 10.4853 8.77297 15.467
160 54 3 0.41 4.27915 9.15819 11.3464
161 54 3 0.41 4.0024 7.49799 11.6361
162 54 5 -0.82 4.47355 8.39076 11.9364
163 55 3 0.41 4.8789 7.35342 -4.29624
164 55 3 0.41 6.21882 7.65688 -3.47784
165 55 5 -0.82 5.82453 7.01359 -4.167
166 56 3 0.41 11.9281 5.21814 2.10614
167 56 3 0.41 11.2739 4.40873 0.95923
168 56 5 -0.82 11.173 4.55352 1.97952
169 57 3 0.41 11.8331 9.16814 -18.1824
170 57 3 0.41 10.8478 8.06706 -18.7232
171 57 5 -0.82 10.9186 9.07625 -18.6663
172 58 3 0.41 5.0966 0.539211 -15.2872
173 58 3 0.41 3.90672 0.520271 -14.2746
174 58 5 -0.82 4.11434 0.208379 -15.1913
175 59 3 0.41 2.19035 11.4886 -4.36663
176 59 3 0.41 2.52287 11.174 -2.86419
177 59 5 -0.82 2.56485 10.7485 -3.83645
178 60 3 0.41 11.7863 7.94279 -5.31271
179 60 3 0.41 11.0987 9.40206 -5.48167
180 60 5 -0.82 11.4644 8.61109 -6.02455
181 61 3 0.41 3.76174 2.58955 14.5145
182 61 3 0.41 2.45882 3.07033 15.2348
183 61 5 -0.82 3.35135 2.65613 15.4433
184 62 3 0.41 7.17629 2.60966 -8.0453
185 62 3 0.41 7.5315 1.13847 -7.35116
186 62 5 -0.82 7.48206 1.64426 -8.22242
187 63 3 0.41 2.85549 8.39044 19.6334
188 63 3 0.41 3.5961 7.5066 20.7073
189 63 5 -0.82 3.77728 8.2559 20.0102
190 64 3 0.41 1.53545 4.77525 4.37118
191 64 3 0.41 0.765721 4.49214 5.63066
192 64 5 -0.82 1.40825 5.15485 5.30937
193 65 3 0.41 2.93223 9.55884 0.272126
194 65 3 0.41 2.66034 8.11422 0.910132
195 65 5 -0.82 2.63294 9.15753 1.15418
196 66 3 0.41 5.31118 -1.46605 0.620062
197 66 3 0.41 4.52298 -0.764211 -0.508769
198 66 5 -0.82 4.65093 12.3335 -0.0757457
199 67 3 0.41 4.72265 9.82836 19.5237
200 67 3 0.41 5.92226 10.9016 19.4504
201 67 5 -0.82 5.11605 10.5434 18.9061
202 68 3 0.41 2.54604 11.33 20.9038
203 68 3 0.41 1.82149 11.5974 19.5169
204 68 5 -0.82 2.63047 11.8751 20.0109
205 69 3 0.41 7.76858 10.9455 -10.9742
206 69 3 0.41 6.56461 11.0206 -9.86923
207 69 5 -0.82 6.89746 11.452 -10.7764
208 70 3 0.41 1.27624 1.69936 -4.58439
209 70 3 0.41 2.30672 1.26117 -5.69594
210 70 5 -0.82 1.88851 2.04705 -5.30807
211 71 3 0.41 2.66053 4.49957 7.27627
212 71 3 0.41 2.73437 5.87024 8.08964
213 71 5 -0.82 2.25416 4.93689 8.12647
214 72 3 0.41 3.98458 5.79792 10.9121
215 72 3 0.41 2.52172 6.04373 10.2637
216 72 5 -0.82 3.14517 6.31675 11.0309
217 73 3 0.41 4.89119 -1.23404 -6.62169
218 73 3 0.41 3.78694 11.9256 -7.40305
219 73 5 -0.82 4.62877 -1.47514 -7.59099
220 74 3 0.41 7.09583 4.94548 8.14234
221 74 3 0.41 8.1138 6.09191 8.93042
222 74 5 -0.82 7.65039 5.8142 8.07492
223 75 3 0.41 11.5582 8.88308 -9.554
224 75 3 0.41 -1.24248 8.67293 -10.6351
225 75 5 -0.82 12.0441 8.2001 -10.1283
226 76 3 0.41 4.58221 2.3936 -9.21142
227 76 3 0.41 4.35138 0.848542 -9.00115
228 76 5 -0.82 3.88067 1.73394 -8.87661
229 77 3 0.41 3.21996 -0.410341 10.1315
230 77 3 0.41 4.04896 -0.299432 11.4875
231 77 5 -0.82 4.16207 -0.166129 10.4734
232 78 3 0.41 9.94778 6.42736 -15.6458
233 78 3 0.41 8.56941 6.1772 -15.9982
234 78 5 -0.82 9.39793 6.52516 -16.4499
235 79 3 0.41 5.70538 10.9656 9.19108
236 79 3 0.41 5.2525 12.3246 9.71797
237 79 5 -0.82 6.08724 11.7815 9.6814
238 80 3 0.41 6.24652 2.11326 -13.4485
239 80 3 0.41 5.15893 3.21718 -13.9503
240 80 5 -0.82 6.09934 2.86032 -14.1311
241 81 3 0.41 1.6725 1.25947 1.50211
242 81 3 0.41 0.885185 2.47514 1.96031
243 81 5 -0.82 1.68522 1.96352 2.22888
244 82 3 0.41 11.6712 4.88714 11.3528
245 82 3 0.41 10.9683 3.86573 10.3188
246 82 5 -0.82 10.8924 4.76415 10.7071
247 83 3 0.41 9.25241 9.19935 8.91927
248 83 3 0.41 9.50475 10.4886 7.91115
249 83 5 -0.82 8.79717 9.81508 8.22828
250 84 3 0.41 1.4771 1.39506 9.31725
251 84 3 0.41 0.90389 0.593574 10.6607
252 84 5 -0.82 1.63929 1.22774 10.3234
253 85 3 0.41 7.52719 6.06011 21.9246
254 85 3 0.41 8.59481 5.96648 23.1541
255 85 5 -0.82 8.51383 6.055 22.1503
256 86 3 0.41 9.98326 3.44628 -11.7648
257 86 3 0.41 11.2332 4.32922 -11.5728
258 86 5 -0.82 10.8004 3.72683 -12.219
259 87 3 0.41 5.49697 3.27431 4.98254
260 87 3 0.41 5.45112 3.51214 3.38644
261 87 5 -0.82 6.06985 3.61489 4.22907
262 88 3 0.41 10.0004 10.1855 22.0415
263 88 3 0.41 11.3975 10.1341 23.0174
264 88 5 -0.82 10.9652 9.81482 22.158
265 89 3 0.41 9.60573 9.54859 -8.10302
266 89 3 0.41 8.41089 9.90312 -7.00139
267 89 5 -0.82 8.64578 9.35243 -7.86791
268 90 3 0.41 11.9645 2.10095 -13.3661
269 90 3 0.41 -0.720701 2.31866 -12.5779
270 90 5 -0.82 -1.05503 1.81171 -13.3696
271 91 3 0.41 3.29823 2.10584 3.58358
272 91 3 0.41 3.3605 0.951841 4.69522
273 91 5 -0.82 3.89177 1.76318 4.3545
274 92 3 0.41 11.9171 4.07977 6.85858
275 92 3 0.41 -1.44962 3.10517 5.8169
276 92 5 -0.82 -1.2955 3.45088 6.74702
277 93 3 0.41 11.0637 9.3326 18.7737
278 93 3 0.41 9.8162 10.0363 17.9535
279 93 5 -0.82 10.6666 9.47242 17.8747
280 94 3 0.41 -0.603461 6.2199 -1.77876
281 94 3 0.41 -0.567638 5.96518 -0.14188
282 94 5 -0.82 -0.0216931 5.89988 -0.988133
283 95 3 0.41 4.11188 5.38746 14.6213
284 95 3 0.41 3.45856 4.36154 13.494
285 95 5 -0.82 3.33297 5.22601 13.9762
286 96 3 0.41 6.73726 11.2656 11.4022
287 96 3 0.41 6.64573 11.0155 12.9935
288 96 5 -0.82 6.35127 10.5823 12.1276
289 97 3 0.41 10.7854 3.85134 23.2928
290 97 3 0.41 10.9155 3.0198 21.9058
291 97 5 -0.82 10.8777 3.94321 22.2729
292 98 3 0.41 8.52486 -0.00813801 -19.241
293 98 3 0.41 8.82917 -0.532647 -17.6609
294 98 5 -0.82 9.20418 0.00907653 -18.477
295 99 3 0.41 6.01898 6.07589 13.7523
296 99 3 0.41 6.94821 5.96826 12.4197
297 99 5 -0.82 6.85478 6.47012 13.3379
298 100 3 0.41 2.66893 -1.43045 2.96171
299 100 3 0.41 3.20854 -1.44098 1.44885
300 100 5 -0.82 3.08366 -0.849963 2.25237
301 101 3 0.41 11.8636 10.7378 1.44297
302 101 3 0.41 -1.0544 10.9768 2.6082
303 101 5 -0.82 12.4526 11.453 1.85069
304 102 3 0.41 2.35207 11.8961 -22.0512
305 102 3 0.41 3.49299 -0.970061 -22.0777
306 102 5 -0.82 2.50602 -1.13463 -22.2652
307 103 3 0.41 3.03602 9.48616 6.90281
308 103 3 0.41 4.18553 9.75456 5.75716
309 103 5 -0.82 3.29268 10.0671 6.0998
310 104 3 0.41 10.612 -0.999559 0.533246
311 104 3 0.41 10.1773 12.2602 -0.822903
312 104 5 -0.82 10.6991 -0.922285 -0.501815
313 105 3 0.41 12.3204 3.68848 13.4221
314 105 3 0.41 -0.598957 2.82282 12.7036
315 105 5 -0.82 -1.40495 2.71338 13.3065
316 106 3 0.41 5.50873 5.87624 -5.83799
317 106 3 0.41 3.95412 5.35444 -6.09614
318 106 5 -0.82 4.69781 5.95634 -6.40333
319 107 3 0.41 10.9595 1.55849 0.680022
320 107 3 0.41 12.3258 1.07353 1.6106
321 107 5 -0.82 11.9208 1.83438 1.00096
322 108 3 0.41 -0.442259 2.27898 -19.2607
323 108 3 0.41 0.530949 0.971458 -19.0866
324 108 5 -0.82 -0.0115822 1.46225 -19.7624
325 109 3 0.41 8.14105 12.4489 -21.9567
326 109 3 0.41 9.46021 -0.973607 -22.6284
327 109 5 -0.82 8.47966 -0.733553 -22.4281
328 110 3 0.41 4.24492 -0.718377 -4.3706
329 110 3 0.41 4.36095 0.863946 -4.42461
330 110 5 -0.82 4.13739 0.134169 -3.83382
331 111 3 0.41 1.98076 3.52678 -3.2757
332 111 3 0.41 1.22832 4.39725 -2.19362
333 111 5 -0.82 1.45167 4.41915 -3.20146
334 112 3 0.41 9.65252 2.09027 -14.6031
335 112 3 0.41 10.2606 3.45699 -13.899
336 112 5 -0.82 9.79171 3.10759 -14.7796
337 113 3 0.41 1.81266 2.01056 20.5405
338 113 3 0.41 1.21012 0.814049 19.6973
339 113 5 -0.82 2.07681 1.16208 20.0349
340 114 3 0.41 3.52891 7.50841 -18.8986
341 114 3 0.41 2.29635 6.66978 -19.5649
342 114 5 -0.82 3.02504 7.42695 -19.7851
343 115 3 0.41 -0.914344 5.28742 -4.72698
344 115 3 0.41 0.283188 4.31222 -4.44358
345 115 5 -0.82 -0.443164 4.48408 -5.1299
346 116 3 0.41 6.74816 -0.452451 16.7433
347 116 3 0.41 8.05657 0.0498547 17.6157
348 116 5 -0.82 7.63677 -0.738002 17.1434
349 117 3 0.41 6.51629 5.81554 -18.7018
350 117 3 0.41 6.47441 4.4359 -19.4351
351 117 5 -0.82 7.08617 5.19806 -19.285
352 118 3 0.41 3.1409 12.0345 -0.869841
353 118 3 0.41 1.54604 11.7404 -0.520417
354 118 5 -0.82 2.23274 11.8845 -1.30891
355 119 3 0.41 10.4382 9.60001 -3.22926
356 119 3 0.41 10.709 11.1107 -3.53819
357 119 5 -0.82 10.6272 10.2419 -3.98349
358 120 3 0.41 10.2546 1.08533 16.2007
359 120 3 0.41 10.2812 2.52676 17.0772
360 120 5 -0.82 9.70738 1.73806 16.7259
361 121 3 0.41 5.04392 6.00644 -13.0597
362 121 3 0.41 5.11259 6.39474 -11.527
363 121 5 -0.82 5.57306 5.76461 -12.1876
364 122 3 0.41 10.6158 7.11794 13.2395
365 122 3 0.41 9.25152 7.28026 14.027
366 122 5 -0.82 9.91348 6.60358 13.721
367 123 3 0.41 3.19598 3.35216 -0.168914
368 123 3 0.41 2.45817 2.07433 -0.477602
369 123 5 -0.82 2.29789 3.05821 -0.484601
370 124 3 0.41 9.0116 10.2313 -2.00949
371 124 3 0.41 8.58252 11.7738 -1.81569
372 124 5 -0.82 9.28359 11.1012 -1.54403
373 125 3 0.41 2.27873 1.35734 -21.6668
374 125 3 0.41 0.624383 1.23308 -21.2926
375 125 5 -0.82 1.34691 1.41222 -22.0077
376 126 3 0.41 -0.928462 3.40717 -10.45
377 126 3 0.41 0.183869 2.29403 -10.3849
378 126 5 -0.82 -0.311144 2.89679 -11.0243
379 127 3 0.41 -0.781565 9.7236 9.69807
380 127 3 0.41 0.0457021 9.47583 11.1063
381 127 5 -0.82 -0.641865 9.12525 10.4688
382 128 3 0.41 8.13579 3.69276 11.1554
383 128 3 0.41 9.10919 4.84183 11.339
384 128 5 -0.82 8.11903 4.68605 11.1885
385 129 3 0.41 10.7644 8.34157 11.8366
386 129 3 0.41 12.3307 8.36071 11.5718
387 129 5 -0.82 11.5922 7.73504 11.9229
388 130 3 0.41 -0.704632 0.342707 -6.16152
389 130 3 0.41 12.3134 1.34117 -5.50207
390 130 5 -0.82 -1.42698 1.00584 -6.43499
391 131 3 0.41 2.96279 10.6001 -20.0833
392 131 3 0.41 4.22235 10.1892 -19.203
393 131 5 -0.82 3.9507 10.4139 -20.2152
394 132 3 0.41 9.60542 4.05224 -3.57993
395 132 3 0.41 10.0558 2.93802 -2.57588
396 132 5 -0.82 9.52874 3.80369 -2.57686
397 133 3 0.41 -0.70941 6.66993 4.43078
398 133 3 0.41 -0.9455 5.05596 4.15894
399 133 5 -0.82 -1.36977 5.9691 4.15205
400 134 3 0.41 9.22226 7.63762 -0.274286
401 134 3 0.41 9.55936 7.28151 1.33862
402 134 5 -0.82 9.66621 6.98875 0.352751
403 135 3 0.41 1.55639 7.06751 -14.5763
404 135 3 0.41 0.592584 5.80063 -14.9516
405 135 5 -0.82 1.39501 6.27928 -15.3128
406 136 3 0.41 -1.12092 -0.914851 11.5616
407 136 3 0.41 -1.45718 12.1289 10.374
408 136 5 -0.82 -1.1408 12.0642 11.3255
409 137 3 0.41 0.479792 0.134216 -0.403467
410 137 3 0.41 1.31943 -0.649953 0.636639
411 137 5 -0.82 1.38396 0.208322 0.0862854
412 138 3 0.41 1.61484 12.2937 10.5882
413 138 3 0.41 1.16901 -1.13284 9.07237
414 138 5 -0.82 1.75261 12.1769 9.55562
415 139 3 0.41 5.40974 7.83359 22.0075
416 139 3 0.41 5.64883 6.37657 22.793
417 139 5 -0.82 5.91849 6.94009 22.0121
418 140 3 0.41 5.76273 9.70723 -8.17787
419 140 3 0.41 5.1391 11.2578 -8.35797
420 140 5 -0.82 5.47594 10.4401 -8.83337
421 141 3 0.41 5.16654 10.3494 -21.2623
422 141 3 0.41 5.37684 9.09536 -21.9398
423 141 5 -0.82 5.59882 10.0683 -22.1049
424 142 3 0.41 4.43381 7.98878 -14.0631
425 142 3 0.41 5.10406 8.935 -12.8575
426 142 5 -0.82 4.67637 8.93311 -13.7898
427 143 3 0.41 11.5389 10.689 13.8188
428 143 3 0.41 12.3621 9.25355 14.0051
429 143 5 -0.82 12.4364 10.1881 13.5689
430 144 3 0.41 5.13491 10.314 -14.8375
431 144 3 0.41 5.07812 11.8911 -14.3466
432 144 5 -0.82 5.25665 11.275 -15.1496
433 145 3 0.41 12.0704 12.4885 -18.8991
434 145 3 0.41 -0.763711 -0.64699 -18.565
435 145 5 -0.82 -1.13832 -1.20526 -19.3385
436 146 3 0.41 -0.518628 2.04691 -16.9151
437 146 3 0.41 1.05653 1.70448 -17.0953
438 146 5 -0.82 0.431669 2.28685 -16.593
439 147 3 0.41 0.262128 11.5208 1.66142
440 147 3 0.41 1.66358 10.8455 1.13094
441 147 5 -0.82 1.03357 11.6102 0.982456
442 148 3 0.41 3.4991 2.61505 19.1754
443 148 3 0.41 4.30769 1.31402 18.7066
444 148 5 -0.82 4.22578 2.34291 18.5873
445 149 3 0.41 4.90208 2.71911 -2.95482
446 149 3 0.41 4.21084 3.49696 -4.13315
447 149 5 -0.82 4.02568 3.18946 -3.20361
448 150 3 0.41 3.62714 5.66107 -14.5834
449 150 3 0.41 4.62116 6.53311 -15.4333
450 150 5 -0.82 4.32076 6.39206 -14.5033
451 151 3 0.41 12.0545 1.7978 14.4699
452 151 3 0.41 12.4222 1.30221 15.9266
453 151 5 -0.82 11.9282 1.03011 15.1071
454 152 3 0.41 5.66884 6.56239 5.43371
455 152 3 0.41 6.37706 5.2313 4.60438
456 152 5 -0.82 6.48366 6.20502 4.94098
457 153 3 0.41 -1.07829 -0.413415 14.4674
458 153 3 0.41 0.427419 -0.923183 14.6128
459 153 5 -0.82 -0.381375 -1.0482 14.0169
460 154 3 0.41 3.55769 4.43635 -22.0358
461 154 3 0.41 4.65697 4.39488 -20.8999
462 154 5 -0.82 4.56263 4.57727 -21.931
463 155 3 0.41 1.39772 7.53168 17.3998
464 155 3 0.41 2.37227 6.28711 17.061
465 155 5 -0.82 1.67095 6.87841 16.6438
466 156 3 0.41 -1.21128 7.92734 0.0384459
467 156 3 0.41 12.3742 8.10279 -1.59024
468 156 5 -0.82 12.3372 8.54866 -0.685936
469 157 3 0.41 11.6651 0.124906 22.2458
470 157 3 0.41 11.126 -0.378541 20.9348
471 157 5 -0.82 10.7556 -0.204895 21.8335
472 158 3 0.41 10.8381 -0.366465 -8.09451
473 158 3 0.41 10.3342 -0.945526 -9.49088
474 158 5 -0.82 11.124 -0.971997 -8.80589
475 159 3 0.41 5.67694 9.22922 -10.8234
476 159 3 0.41 6.98081 8.41055 -10.9591
477 159 5 -0.82 6.1674 8.69155 -11.5076
478 160 3 0.41 6.64809 2.07031 12.2505
479 160 3 0.41 5.42626 1.47541 11.2249
480 160 5 -0.82 6.41847 1.75172 11.3216
481 161 3 0.41 -0.466932 -1.48659 -1.71017
482 161 3 0.41 12.2403 -0.514228 -1.42529
483 161 5 -0.82 -0.750522 -0.511029 -1.53558
484 162 3 0.41 10.9213 7.6305 -7.03591
485 162 3 0.41 11.309 6.10044 -7.59415
486 162 5 -0.82 10.5568 6.77278 -7.55692
487 163 3 0.41 6.62891 -0.526546 -14.4614
488 163 3 0.41 7.43708 0.119214 -13.1604
489 163 5 -0.82 6.84785 -0.646944 -13.4587
490 164 3 0.41 1.90824 8.32103 -1.95478
491 164 3 0.41 0.790572 7.71119 -0.950616
492 164 5 -0.82 1.0289 8.5376 -1.47366
493 165 3 0.41 4.61197 7.59377 18.1828
494 165 3 0.41 4.36035 8.66138 17.1603
495 165 5 -0.82 4.69329 7.73899 17.1886
496 166 3 0.41 10.3797 6.64608 16.7978
497 166 3 0.41 8.73729 6.72036 16.4871
498 166 5 -0.82 9.47818 6.29094 17.0709
499 167 3 0.41 10.1382 7.17194 -12.2609
500 167 3 0.41 10.8634 7.20999 -10.8272
501 167 5 -0.82 10.2029 6.66738 -11.3678
502 168 3 0.41 -0.528559 -1.34992 -7.97555
503 168 3 0.41 -0.411916 -0.622119 -9.40623
504 168 5 -0.82 0.122515 -0.945978 -8.59188
505 169 3 0.41 12.1302 7.35046 2.06525
506 169 3 0.41 -0.30097 7.27497 1.80884
507 169 5 -0.82 -1.16483 7.02414 1.41825
508 170 3 0.41 6.32211 0.350133 -9.13704
509 170 3 0.41 6.12104 -0.730729 -10.3216
510 170 5 -0.82 5.6711 0.0544056 -9.85052
511 171 3 0.41 1.03803 1.23764 14.258
512 171 3 0.41 1.43749 1.9587 12.8972
513 171 5 -0.82 1.69977 1.17635 13.485
514 172 3 0.41 12.4607 11.4947 21.5209
515 172 3 0.41 -1.32761 12.3659 22.8925
516 172 5 -0.82 -0.897247 12.068 22.0769
517 173 3 0.41 1.84627 2.81854 7.18374
518 173 3 0.41 0.227318 2.85767 7.41689
519 173 5 -0.82 1.07955 2.284 7.5819
520 174 3 0.41 10.1299 1.5997 20.1856
521 174 3 0.41 10.2703 3.06476 19.5528
522 174 5 -0.82 10.7718 2.1836 19.7523
523 175 3 0.41 -0.548942 -0.469403 3.25197
524 175 3 0.41 11.8954 -0.0351567 2.83381
525 175 5 -0.82 -1.13624 0.303957 2.86982
526 176 3 0.41 7.69898 5.15335 -2.42898
527 176 3 0.41 7.20418 6.6392 -1.89219
528 176 5 -0.82 7.84192 6.15528 -2.5249
529 177 3 0.41 -0.0977502 11.8624 5.01001
530 177 3 0.41 1.1259 11.9239 3.8916
531 177 5 -0.82 0.289315 12.4109 4.28381
532 178 3 0.41 10.2494 0.353008 -19.6539
533 178 3 0.41 11.7366 1.00623 -19.5039
534 178 5 -0.82 10.9684 0.840124 -20.167
535 179 3 0.41 -1.15187 3.94832 -21.9925
536 179 3 0.41 12.494 5.23288 -21.3105
537 179 5 -0.82 -0.890972 4.95445 -22.0548
538 180 3 0.41 4.25774 6.5989 3.29036
539 180 3 0.41 3.53195 6.72895 1.93868
540 180 5 -0.82 4.44198 6.78677 2.29944
541 181 3 0.41 -1.25865 0.563599 -14.502
542 181 3 0.41 -1.2942 -0.94487 -15.0986
543 181 5 -0.82 12.4202 0.0424492 -15.3137
544 182 3 0.41 -1.08197 1.80109 -21.4521
545 182 3 0.41 11.4777 2.5648 -21.6013
546 182 5 -0.82 12.4169 2.49054 -21.9868
547 183 3 0.41 10.7383 11.8482 -13.2246
548 183 3 0.41 9.25666 11.1716 -13.2296
549 183 5 -0.82 9.76959 12.0463 -13.5142
550 184 3 0.41 4.56984 -1.2416 3.4555
551 184 3 0.41 4.8082 -0.00340902 4.48839
552 184 5 -0.82 5.03984 -0.967462 4.29222
553 185 3 0.41 7.31616 6.81072 -13.3344
554 185 3 0.41 8.73688 6.57807 -14.1456
555 185 5 -0.82 8.1507 7.28746 -13.666
556 186 3 0.41 4.62555 4.75481 -1.18102
557 186 3 0.41 5.46915 3.59071 -0.61042
558 186 5 -0.82 4.88167 4.33653 -0.309156
559 187 3 0.41 1.43493 6.58598 3.05552
560 187 3 0.41 1.90053 8.04405 2.40002
561 187 5 -0.82 1.19399 7.58846 2.95688
562 188 3 0.41 -0.596966 11.2227 -22.0738
563 188 3 0.41 0.144038 9.92539 -21.6944
564 188 5 -0.82 -0.751661 10.2012 -22.0469
565 189 3 0.41 2.94258 11.8628 14.4293
566 189 3 0.41 2.47082 -1.39184 15.8725
567 189 5 -0.82 2.23312 12.3337 14.9582
568 190 3 0.41 2.68418 -1.1016 18.4563
569 190 3 0.41 2.51569 0.451897 18.373
570 190 5 -0.82 2.42208 -0.363855 17.7891
571 191 3 0.41 4.60281 12.0343 13.2248
572 191 3 0.41 4.35082 10.5343 12.7307
573 191 5 -0.82 3.93625 11.2523 13.3239
574 192 3 0.41 12.4339 6.65264 16.3824
575 192 3 0.41 -1.13023 7.72598 17.423
576 192 5 -0.82 12.204 6.95002 17.2951
577 193 3 0.41 9.29924 9.8305 13.8742
578 193 3 0.41 9.23668 9.90339 12.2622
579 193 5 -0.82 8.81758 9.43535 13.0937
580 194 3 0.41 5.4237 5.5464 19.5971
581 194 3 0.41 6.07699 6.58554 20.4079
582 194 5 -0.82 6.20447 6.1537 19.4869
583 195 3 0.41 4.38297 1.09413 8.6217
584 195 3 0.41 4.30934 0.305346 7.17697
585 195 5 -0.82 4.37991 1.21598 7.61716
586 196 3 0.41 6.4384 4.4457 -22.065
587 196 3 0.41 6.97857 2.982 -22.2528
588 196 5 -0.82 7.29741 3.93968 -22.144
589 197 3 0.41 10.914 11.945 5.19447
590 197 3 0.41 11.8307 11.4269 6.23364
591 197 5 -0.82 11.8715 11.5144 5.24613
592 198 3 0.41 1.99152 1.23751 -12.9451
593 198 3 0.41 0.55513 1.84731 -13.5115
594 198 5 -0.82 1.53926 1.67731 -13.76
595 199 3 0.41 1.68027 11.8748 -14.9289
596 199 3 0.41 2.831 11.4047 -13.8177
597 199 5 -0.82 2.23348 11.13 -14.5805
598 200 3 0.41 -0.419223 9.95747 4.46956
599 200 3 0.41 0.122219 8.74513 3.65876
600 200 5 -0.82 -0.621229 9.40942 3.63142
601 201 3 0.41 7.33392 0.125933 11.3099
602 201 3 0.41 8.53649 0.0179645 12.1863
603 201 5 -0.82 7.98159 -0.551673 11.6325
604 202 3 0.41 8.40471 -0.819784 -9.52396
605 202 3 0.41 8.257 -1.23395 -11.0836
606 202 5 -0.82 8.90396 -0.874332 -10.4166
607 203 3 0.41 3.47234 11.6532 6.7107
608 203 3 0.41 3.21293 12.2552 8.22494
609 203 5 -0.82 3.76017 12.3894 7.34533
610 204 3 0.41 1.41704 -0.344578 -17.2839
611 204 3 0.41 2.07931 -0.569387 -18.8445
612 204 5 -0.82 1.28785 -0.156593 -18.2795
613 205 3 0.41 1.66329 4.67459 -5.71984
614 205 3 0.41 2.55343 3.38005 -5.95911
615 205 5 -0.82 2.53129 4.37471 -6.15205
616 206 3 0.41 5.09623 6.41689 16.1766
617 206 3 0.41 5.63264 4.8987 16.4391
618 206 5 -0.82 5.17653 5.48005 15.7743
619 207 3 0.41 7.49226 -0.611171 -2.44796
620 207 3 0.41 7.05409 12.3654 -3.47503
621 207 5 -0.82 7.62555 -0.796505 -3.41173
622 208 3 0.41 2.06649 10.3142 11.2787
623 208 3 0.41 2.11857 9.82395 12.804
624 208 5 -0.82 1.46919 10.0247 12.0255
625 209 3 0.41 2.8096 7.05467 -12.4952
626 209 3 0.41 2.70733 5.58146 -11.7448
627 209 5 -0.82 3.03628 6.55037 -11.6354
628 210 3 0.41 9.38185 4.21198 15.5199
629 210 3 0.41 9.19843 5.15321 14.1364
630 210 5 -0.82 8.85905 4.3682 14.6554
631 211 3 0.41 11.302 1.13623 6.6001
632 211 3 0.41 9.96101 1.32799 7.54032
633 211 5 -0.82 10.3377 0.869317 6.7358
634 212 3 0.41 7.36697 10.5896 15.2883
635 212 3 0.41 6.50073 11.9436 15.2918
636 212 5 -0.82 7.22373 11.4413 14.7396
637 213 3 0.41 3.91745 11.6358 -5.2921
638 213 3 0.41 5.22641 11.2824 -4.38919
639 213 5 -0.82 4.90004 11.8989 -5.06313
640 214 3 0.41 -1.24601 4.56203 -19.6202
641 214 3 0.41 -1.22709 3.92355 -18.1073
642 214 5 -0.82 -0.709525 3.9086 -18.998
643 215 3 0.41 -0.680322 11.1528 -5.74739
644 215 3 0.41 12.1923 12.2299 -6.09228
645 215 5 -0.82 -1.19623 11.5456 -6.54763
646 216 3 0.41 4.86978 7.74047 8.20299
647 216 3 0.41 5.71681 6.37824 7.68923
648 216 5 -0.82 4.86409 6.90579 7.61519
649 217 3 0.41 7.40943 5.2892 -12.032
650 217 3 0.41 8.52717 4.65488 -11.1212
651 217 5 -0.82 7.97008 4.46991 -11.9125
652 218 3 0.41 -1.45231 5.28871 14.3444
653 218 3 0.41 11.1114 5.43901 14.242
654 218 5 -0.82 11.7553 5.02292 14.8532
655 219 3 0.41 8.98448 0.495588 -2.90961
656 219 3 0.41 10.1822 0.31138 -1.7116
657 219 5 -0.82 9.76554 0.928541 -2.40417
658 220 3 0.41 3.3956 4.94457 18.9353
659 220 3 0.41 3.38373 3.82466 17.7826
660 220 5 -0.82 2.88801 4.71264 18.0614
661 221 3 0.41 -1.30357 4.89 -8.89917
662 221 3 0.41 12.0236 6.11042 -9.85074
663 221 5 -0.82 12.1093 5.08116 -9.70903
664 222 3 0.41 10.8674 12.2021 -21.6144
665 222 3 0.41 12.0363 -1.04539 -22.2473
666 222 5 -0.82 11.1068 -1.32582 -22.5012
667 223 3 0.41 0.591041 11.9302 -12.4565
668 223 3 0.41 -0.337594 -1.35456 -13.4472
669 223 5 -0.82 0.343386 -1.12974 -12.7923
670 224 3 0.41 2.46046 -0.542816 6.45965
671 224 3 0.41 2.19498 1.00271 6.59001
672 224 5 -0.82 2.10082 0.268642 5.94681
673 225 3 0.41 9.8159 10.3862 0.106111
674 225 3 0.41 10.9084 9.36063 0.190934
675 225 5 -0.82 10.4618 10.0567 0.799648
676 226 3 0.41 7.36449 7.0223 14.85
677 226 3 0.41 7.36468 8.5325 15.591
678 226 5 -0.82 7.90719 7.67301 15.4938
679 227 3 0.41 7.0591 7.60261 19.4025
680 227 3 0.41 7.96217 8.84079 20.0809
681 227 5 -0.82 7.59199 8.45467 19.1975
682 228 3 0.41 2.19284 2.82587 -11.5378
683 228 3 0.41 2.62489 3.97347 -10.5347
684 228 5 -0.82 2.3799 3.8073 -11.5032
685 229 3 0.41 10.0554 4.32214 -21.1156
686 229 3 0.41 9.10046 4.82204 -22.17
687 229 5 -0.82 10.1124 4.73209 -22.0289
688 230 3 0.41 8.61086 2.46912 -5.20312
689 230 3 0.41 10.2367 2.07186 -4.83751
690 230 5 -0.82 9.50457 2.00116 -5.54061
691 231 3 0.41 7.28152 5.74798 -7.3245
692 231 3 0.41 8.79591 6.52257 -7.42514
693 231 5 -0.82 7.86804 6.51818 -6.96488
694 232 3 0.41 12.0542 1.55379 -7.90445
695 232 3 0.41 12.3409 1.18763 -9.47757
696 232 5 -0.82 11.82 1.80528 -8.88617
697 233 3 0.41 10.5108 5.81752 -4.20811
698 233 3 0.41 10.3273 5.03446 -5.69312
699 233 5 -0.82 9.80081 5.3881 -4.82866
700 234 3 0.41 9.60112 -1.34991 2.44533
701 234 3 0.41 11.2423 12.2957 2.59433
702 234 5 -0.82 10.5168 -0.982594 2.68583
703 235 3 0.41 10.2226 7.30292 9.06317
704 235 3 0.41 9.79773 6.08423 10.0842
705 235 5 -0.82 9.47227 6.97787 9.6966
706 236 3 0.41 9.60897 4.23232 2.45219
707 236 3 0.41 7.95772 4.55038 2.38674
708 236 5 -0.82 8.69865 4.01867 2.84675
709 237 3 0.41 10.6555 10.7543 10.33
710 237 3 0.41 9.28192 11.4979 10.6391
711 237 5 -0.82 9.92792 10.7591 10.9998
712 238 3 0.41 2.7299 6.39783 5.02473
713 238 3 0.41 3.86728 7.37638 5.60212
714 238 5 -0.82 3.50537 6.97248 4.7508
715 239 3 0.41 7.3947 0.218508 2.73856
716 239 3 0.41 6.23337 1.25448 2.21652
717 239 5 -0.82 7.12495 1.23262 2.76464
718 240 3 0.41 7.66711 -0.90091 -0.203329
719 240 3 0.41 8.18691 0.613982 -0.454076
720 240 5 -0.82 7.62658 -0.125347 -0.838399
721 241 3 0.41 11.3622 3.58077 3.16934
722 241 3 0.41 10.7913 2.26924 3.99553
723 241 5 -0.82 11.4877 3.04179 4.08053
724 242 3 0.41 2.57417 10.6487 4.65328
725 242 3 0.41 2.92859 10.2402 3.12189
726 242 5 -0.82 2.33036 10.8287 3.66281
727 243 3 0.41 12.1286 0.680811 -16.9107
728 243 3 0.41 11.3048 2.05434 -17.1042
729 243 5 -0.82 12.1192 1.59187 -17.4306
730 244 3 0.41 5.12151 9.61747 23.1347
731 244 3 0.41 4.30107 9.64951 21.7085
732 244 5 -0.82 5.20609 9.7069 22.1074
733 245 3 0.41 1.51457 7.29251 -21.0663
734 245 3 0.41 0.492432 6.75783 -22.1029
735 245 5 -0.82 1.31375 7.27208 -22.0705
736 246 3 0.41 12.1676 9.6564 20.6722
737 246 3 0.41 -0.861278 10.2062 19.5217
738 246 5 -0.82 -1.24752 9.3306 19.9416
739 247 3 0.41 9.07311 -1.21568 16.1059
740 247 3 0.41 10.1698 -1.44949 14.876
741 247 5 -0.82 10.0754 -1.16332 15.8778
742 248 3 0.41 8.1409 7.59631 10.5585
743 248 3 0.41 6.78985 8.30269 9.8801
744 248 5 -0.82 7.24111 8.06115 10.7322
745 249 3 0.41 7.00299 9.53173 -12.8179
746 249 3 0.41 7.28724 11.0442 -13.1844
747 249 5 -0.82 7.5686 10.1018 -13.4517
748 250 3 0.41 -0.276545 4.45598 23.1156
749 250 3 0.41 12.4392 4.26219 22.2387
750 250 5 -0.82 -0.589774 4.5498 22.2001
751 251 3 0.41 -0.124982 4.88546 9.58963
752 251 3 0.41 0.947295 4.02753 8.82552
753 251 5 -0.82 0.309906 3.93791 9.60896