ITEM: TIMESTEP
35000
ITEM: NUMBER OF ATOMS
1360
ITEM: BOX BOUNDS pp pp pp
-1.5000000000000000e+00 1.2500000000000000e+01
-1.5000000000000000e+00 1.2500000000000000e+01
-2.7500000000000000e+01 2.7500000000000000e+01
ITEM: ATOMS id mol type q x y z
1 1 3 0.41 3.89059 -0.28486 6.88817
2 1 3 0.41 2.52224 -0.313728 6.11567
3 1 5 -0.82 3.44989 0.0895671 6.03736
4 2 3 0.41 9.87543 6.74044 -13.373
5 2 3 0.41 10.0925 8.06282 -12.4621
6 2 5 -0.82 9.90163 7.7595 -13.4146
7 3 3 0.41 3.39556 -1.44984 13.657
8 3 3 0.41 3.47979 -0.648042 12.2288
9 3 5 -0.82 3.08314 -0.62366 13.1807
10 4 3 0.41 12.3602 -0.610558 -17.8751
11 4 3 0.41 -0.563004 12.4037 -17.1197
12 4 5 -0.82 -1.03822 -1.40093 -17.9939
13 5 3 0.41 2.58877 5.6921 -9.61378
14 5 3 0.41 4.18672 6.00354 -9.23718
15 5 5 -0.82 3.54662 5.54767 -9.91719
16 6 3 0.41 5.26749 0.626094 -20.6633
17 6 3 0.41 4.76039 1.80175 -21.5981
18 6 5 -0.82 5.12408 0.867561 -21.6198
19 7 3 0.41 3.00332 12.1975 -14.2617
20 7 3 0.41 2.38259 11.4208 -15.4988
21 7 5 -0.82 2.99802 11.248 -14.7012
22 8 3 0.41 6.02853 5.44096 17.1503
23 8 3 0.41 4.66183 5.65181 16.3363
24 8 5 -0.82 5.0154 5.71616 17.2928
25 9 3 0.41 0.124918 4.84756 -19.5138
26 9 3 0.41 1.52034 4.16281 -19.8507
27 9 5 -0.82 0.758268 4.66933 -20.3
28 10 3 0.41 11.7505 11.121 7.75911
29 10 3 0.41 11.5385 10.1145 8.98831
30 10 5 -0.82 11.7729 10.1046 7.99359
31 11 3 0.41 2.99924 10.3061 -9.47305
32 11 3 0.41 3.57068 11.6474 -8.70014
33 11 5 -0.82 2.7632 11.2914 -9.22005
34 12 3 0.41 3.85512 4.32878 -14.4725
35 12 3 0.41 5.20652 3.58411 -14.0512
36 12 5 -0.82 4.19821 3.41705 -14.18
37 13 3 0.41 7.9604 -1.28401 5.43351
38 13 3 0.41 6.56033 -0.469927 5.49512
39 13 5 -0.82 6.95138 -1.40598 5.52936
40 14 3 0.41 10.6795 7.09513 -18.9183
41 14 3 0.41 10.5741 6.26538 -17.536
42 14 5 -0.82 10.6813 6.19395 -18.546
43 15 3 0.41 5.68176 3.72289 -0.0347936
44 15 3 0.41 5.6278 2.26043 -0.705343
45 15 5 -0.82 5.98034 3.15781 -0.908405
46 16 3 0.41 11.2635 4.90283 9.25861
47 16 3 0.41 12.1374 6.2556 9.21224
48 16 5 -0.82 11.5779 5.69482 9.85628
49 17 3 0.41 9.61223 -1.05592 22.7476
50 17 3 0.41 8.55526 12.4771 23.5897
51 17 5 -0.82 8.6294 -1.31135 22.6185
52 18 3 0.41 2.40651 0.416325 -21.0631
53 18 3 0.41 2.17623 1.73192 -21.9373
54 18 5 -0.82 1.78901 0.855111 -21.7876
55 19 3 0.41 1.76707 10.1045 8.08254
56 19 3 0.41 0.373656 9.6959 7.41927
57 19 5 -0.82 0.768234 10.0984 8.21538
58 20 3 0.41 1.40292 11.2263 -17.5827
59 20 3 0.41 2.11863 9.74231 -17.366
60 20 5 -0.82 2.282 10.7126 -17.6867
61 21 3 0.41 10.4384 10.2392 21.4742
62 21 3 0.41 11.3934 11.489 22.0442
63 21 5 -0.82 11.3952 10.5863 21.5209
64 22 3 0.41 7.71864 6.42796 -18.8005
65 22 3 0.41 8.9131 5.48578 -19.2491
66 22 5 -0.82 7.91632 5.57682 -19.3033
67 23 3 0.41 12.0849 4.22242 -15.2682
68 23 3 0.41 -0.398209 3.73998 -14.9155
69 23 5 -0.82 -1.10333 3.74837 -15.6202
70 24 3 0.41 7.15008 6.9995 -16.4847
71 24 3 0.41 8.54828 7.2598 -17.1186
72 24 5 -0.82 7.56811 7.47834 -17.2853
73 25 3 0.41 -1.08924 7.39431 -13.1162
74 25 3 0.41 -1.09798 6.17875 -12.0395
75 25 5 -0.82 -0.988602 6.38421 -13.0557
76 26 3 0.41 5.96816 11.7219 -13.9054
77 26 3 0.41 5.81437 11.7521 -12.2943
78 26 5 -0.82 5.93476 12.3381 -13.1182
79 27 3 0.41 2.24774 12.4269 -10.4134
80 27 3 0.41 1.84888 0.0848893 -10.3652
81 27 5 -0.82 2.33431 -0.651474 -10.8742
82 28 3 0.41 10.1161 2.08334 -10.8112
83 28 3 0.41 8.93051 1.33371 -11.4612
84 28 5 -0.82 9.43698 2.18448 -11.5847
85 29 3 0.41 8.71052 11.1426 21.9453
86 29 3 0.41 7.70633 9.95906 21.6178
87 29 5 -0.82 8.71197 10.1318 21.7709
88 30 3 0.41 0.798021 4.73728 8.34449
89 30 3 0.41 0.289263 3.95086 6.94018
90 30 5 -0.82 0.0898099 4.14772 7.91134
91 31 3 0.41 7.98045 0.974847 -16.1833
92 31 3 0.41 6.97976 1.92477 -17.0324
93 31 5 -0.82 7.38336 0.980366 -16.984
94 32 3 0.41 3.10606 8.37414 -16.5571
95 32 3 0.41 1.74362 8.20593 -15.6252
96 32 5 -0.82 2.07094 8.39307 -16.551
97 33 3 0.41 7.70437 9.09902 -17.4756
98 33 3 0.41 8.73216 9.92951 -16.5525
99 33 5 -0.82 8.22966 10.0144 -17.4492
100 34 3 0.41 0.929126 -0.252109 8.49031
101 34 3 0.41 2.01783 1.01923 8.57126
102 34 5 -0.82 1.87728 0.0343864 8.56875
103 35 3 0.41 0.0711313 9.26358 18.3022
104 35 3 0.41 0.144184 8.22336 17.1509
105 35 5 -0.82 0.484266 9.14446 17.3824
106 36 3 0.41 12.1751 11.7579 -7.24422
107 36 3 0.41 11.2299 11.3397 -8.59513
108 36 5 -0.82 11.454 11.1353 -7.61603
109 37 3 0.41 10.7725 7.89574 21.8026
110 37 3 0.41 11.9821 8.05272 22.8538
111 37 5 -0.82 11.7219 7.54894 21.9943
112 38 3 0.41 0.0113501 6.50762 -2.36633
113 38 3 0.41 1.05401 7.60822 -2.78258
114 38 5 -0.82 0.563144 6.79699 -3.1263
115 39 3 0.41 9.04897 3.26179 -14.7863
116 39 3 0.41 9.05725 4.8698 -14.6549
117 39 5 -0.82 8.99759 4.13987 -15.3186
118 40 3 0.41 10.2963 3.83901 -21.4603
119 40 3 0.41 9.51034 5.24519 -21.6563
120 40 5 -0.82 9.46852 4.22075 -21.859
121 41 3 0.41 9.70009 9.25634 -14.2971
122 41 3 0.41 10.311 10.0621 -15.4427
123 41 5 -0.82 9.41397 10.0086 -14.9156
124 42 3 0.41 6.77536 5.36298 3.50279
125 42 3 0.41 5.88628 4.79825 4.76005
126 42 5 -0.82 5.8562 5.05064 3.75974
127 43 3 0.41 9.00513 10.7076 19.2946
128 43 3 0.41 10.6089 10.5397 19.0137
129 43 5 -0.82 9.73741 10.0266 19.0554
130 44 3 0.41 9.21282 -1.43643 -20.9303
131 44 3 0.41 8.99891 -0.196412 -22.0086
132 44 5 -0.82 9.67385 -0.837446 -21.6344
133 45 3 0.41 10.2353 12.4439 6.83735
134 45 3 0.41 8.89147 11.7578 7.48009
135 45 5 -0.82 9.29806 12.1157 6.59988
136 46 3 0.41 5.42369 -1.3897 23.1271
137 46 3 0.41 6.86173 -1.41625 22.4218
138 46 5 -0.82 5.89452 12.4152 22.2509
139 47 3 0.41 8.11918 10.771 9.82039
140 47 3 0.41 9.68134 10.7728 9.79635
141 47 5 -0.82 8.89708 10.737 9.15408
142 48 3 0.41 12.0112 9.41374 10.4786
143 48 3 0.41 10.7363 8.99495 11.252
144 48 5 -0.82 10.9892 9.49552 10.4579
145 49 3 0.41 12.4611 5.26478 -3.17642
146 49 3 0.41 11.567 5.16499 -1.99761
147 49 5 -0.82 12.4915 5.50508 -2.18068
148 50 3 0.41 7.37505 -0.481593 14.6976
149 50 3 0.41 7.90042 0.674722 15.6693
150 50 5 -0.82 7.72565 -0.313435 15.6632
151 51 3 0.41 2.54792 0.569335 2.28121
152 51 3 0.41 1.65321 0.185139 3.53943
153 51 5 -0.82 2.63688 0.448256 3.28621
154 52 3 0.41 0.640327 2.28134 -18.437
155 52 3 0.41 -0.588448 2.93305 -17.5027
156 52 5 -0.82 -0.327187 2.55272 -18.3633
157 53 3 0.41 8.38 9.24293 7.56103
158 53 3 0.41 9.8337 9.21198 7.71608
159 53 5 -0.82 9.18782 8.92799 7.0097
160 54 3 0.41 4.48872 10.5316 14.1611
161 54 3 0.41 4.7842 11.4991 15.465
162 54 5 -0.82 4.29629 11.4483 14.6095
163 55 3 0.41 6.04285 5.87728 1.05744
164 55 3 0.41 5.5756 4.7776 2.12624
165 55 5 -0.82 5.46754 5.05139 1.16847
166 56 3 0.41 10.1605 3.75732 -0.195795
167 56 3 0.41 11.0958 3.25035 0.877706
168 56 5 -0.82 10.8658 3.00342 -0.0841196
169 57 3 0.41 0.649271 9.39673 -21.8946
170 57 3 0.41 2.03983 9.93042 -21.1658
171 57 5 -0.82 1.71759 9.23213 -21.8225
172 58 3 0.41 6.75969 1.00354 -21.9894
173 58 3 0.41 8.10307 1.76265 -21.5958
174 58 5 -0.82 7.76947 1.0351 -22.2007
175 59 3 0.41 1.97613 9.98381 -1.78794
176 59 3 0.41 1.04005 8.79526 -0.996782
177 59 5 -0.82 1.42865 9.10328 -1.87123
178 60 3 0.41 10.8013 9.77959 -0.678968
179 60 3 0.41 9.80048 10.8792 0.0736912
180 60 5 -0.82 9.82957 9.97767 -0.424955
181 61 3 0.41 5.4118 2.09358 12.5975
182 61 3 0.41 6.89948 2.10514 13.1813
183 61 5 -0.82 5.97829 1.87485 13.4222
184 62 3 0.41 1.72174 5.53556 -3.80284
185 62 3 0.41 1.25453 4.44595 -4.90686
186 62 5 -0.82 1.99521 5.10876 -4.69749
187 63 3 0.41 6.16853 6.01866 19.1118
188 63 3 0.41 7.15806 6.00154 20.3944
189 63 5 -0.82 7.05545 6.38927 19.4461
190 64 3 0.41 11.2995 3.2548 5.22516
191 64 3 0.41 10.6622 3.05644 6.70522
192 64 5 -0.82 10.4222 3.12019 5.7271
193 65 3 0.41 10.1422 8.62698 2.36271
194 65 3 0.41 9.26005 9.57514 1.66735
195 65 5 -0.82 9.13819 8.77294 2.17566
196 66 3 0.41 3.23366 7.1282 1.16991
197 66 3 0.41 3.60142 8.57266 1.68878
198 66 5 -0.82 3.00325 7.7952 1.88438
199 67 3 0.41 7.03462 8.14952 19.066
200 67 3 0.41 6.76332 9.0497 20.2398
201 67 5 -0.82 6.6696 9.10099 19.2481
202 68 3 0.41 3.34602 0.784042 19.102
203 68 3 0.41 2.65084 -0.383088 18.2941
204 68 5 -0.82 2.99757 -0.181743 19.2415
205 69 3 0.41 3.36644 -0.113801 -12.6866
206 69 3 0.41 4.5548 -0.583303 -13.7359
207 69 5 -0.82 3.547 -0.289291 -13.6697
208 70 3 0.41 9.68005 12.123 -10.3755
209 70 3 0.41 9.64601 12.3091 -8.82706
210 70 5 -0.82 10.2569 12.497 -9.61591
211 71 3 0.41 8.2493 5.01235 4.4896
212 71 3 0.41 9.47886 6.09933 3.93531
213 71 5 -0.82 8.44421 5.95426 4.09502
214 72 3 0.41 7.83888 6.4526 17.3552
215 72 3 0.41 8.46676 5.0659 17.0054
216 72 5 -0.82 7.6278 5.61728 16.8366
217 73 3 0.41 3.67316 1.23027 -3.05052
218 73 3 0.41 3.98759 -0.266271 -2.71004
219 73 5 -0.82 4.43586 0.661406 -2.74584
220 74 3 0.41 5.62796 5.80207 6.57072
221 74 3 0.41 5.86186 4.59257 7.40624
222 74 5 -0.82 5.78878 4.80182 6.44215
223 75 3 0.41 3.02024 10.6144 -13.0145
224 75 3 0.41 3.64916 10.302 -11.5586
225 75 5 -0.82 2.73296 10.1985 -12.1036
226 76 3 0.41 8.55345 9.69186 -9.90339
227 76 3 0.41 8.43912 10.3068 -8.42942
228 76 5 -0.82 8.28241 9.46557 -8.948
229 77 3 0.41 8.04895 12.4537 16.4742
230 77 3 0.41 8.08713 11.479 17.8117
231 77 5 -0.82 8.41262 11.5577 16.841
232 78 3 0.41 0.485923 6.80238 -18.5757
233 78 3 0.41 1.17899 8.09076 -18.0025
234 78 5 -0.82 0.937425 7.66208 -18.8717
235 79 3 0.41 9.96982 0.649605 8.59895
236 79 3 0.41 10.7369 -0.22586 9.89703
237 79 5 -0.82 10.7807 0.50866 9.16047
238 80 3 0.41 8.3293 3.18537 -18.9635
239 80 3 0.41 7.00058 2.74461 -19.7904
240 80 5 -0.82 8.00839 2.5716 -19.6686
241 81 3 0.41 11.0093 0.300221 -3.50179
242 81 3 0.41 9.94496 -0.550289 -2.74431
243 81 5 -0.82 10.0664 0.0211608 -3.58086
244 82 3 0.41 8.96484 3.09482 16.3775
245 82 3 0.41 7.53499 2.81321 15.7469
246 82 5 -0.82 8.48642 2.43336 15.7492
247 83 3 0.41 3.29309 7.86113 9.33103
248 83 3 0.41 4.4651 7.41402 8.17479
249 83 5 -0.82 3.83917 7.11343 8.9598
250 84 3 0.41 4.45579 0.645014 11.1169
251 84 3 0.41 4.71752 -0.488876 9.87141
252 84 5 -0.82 4.61535 -0.319719 10.8574
253 85 3 0.41 9.64825 5.93492 21.9249
254 85 3 0.41 10.3631 4.7644 22.8997
255 85 5 -0.82 10.2199 5.07771 21.9321
256 86 3 0.41 -0.523352 1.01309 -10.4546
257 86 3 0.41 -1.30941 -0.411702 -10.7605
258 86 5 -0.82 -1.18778 0.529293 -11.0772
259 87 3 0.41 5.69091 2.7922 2.73574
260 87 3 0.41 4.87039 1.85569 1.72813
261 87 5 -0.82 4.73764 2.40616 2.56609
262 88 3 0.41 2.2164 9.39344 22.1403
263 88 3 0.41 3.73197 9.40923 22.6797
264 88 5 -0.82 3.16817 9.18584 21.8759
265 89 3 0.41 1.34013 12.4728 -12.4215
266 89 3 0.41 0.231649 -0.562375 -13.0118
267 89 5 -0.82 0.554325 12.4809 -13.0459
268 90 3 0.41 9.58868 10.3844 -11.8177
269 90 3 0.41 8.0722 9.94763 -12.178
270 90 5 -0.82 8.61403 10.555 -11.5422
271 91 3 0.41 -0.403943 1.59734 6.29383
272 91 3 0.41 -0.887351 1.06946 7.82827
273 91 5 -0.82 -0.877952 0.846726 6.8062
274 92 3 0.41 10.7133 12.116 2.27357
275 92 3 0.41 10.9457 -0.99628 0.986117
276 92 5 -0.82 10.4483 12.1651 1.26595
277 93 3 0.41 2.84535 9.46294 11.041
278 93 3 0.41 2.35101 8.06491 11.7574
279 93 5 -0.82 2.4568 8.53924 10.8636
280 94 3 0.41 0.357953 6.4224 0.465557
281 94 3 0.41 1.56191 6.37047 -0.595421
282 94 5 -0.82 0.826239 6.97337 -0.251604
283 95 3 0.41 5.95509 4.52905 13.9912
284 95 3 0.41 5.62025 3.89725 15.4247
285 95 5 -0.82 5.23481 4.54635 14.7045
286 96 3 0.41 10.2661 9.81418 13.3205
287 96 3 0.41 8.91069 9.08993 13.6201
288 96 5 -0.82 9.68693 9.05408 12.9484
289 97 3 0.41 0.388087 5.08892 22.1812
290 97 3 0.41 -0.988224 4.986 22.9557
291 97 5 -0.82 -0.604569 4.87482 22.0076
292 98 3 0.41 10.2545 7.1274 -15.1571
293 98 3 0.41 10.9595 7.95505 -16.501
294 98 5 -0.82 10.3623 7.12276 -16.1522
295 99 3 0.41 7.109 7.22271 14.0118
296 99 3 0.41 7.98565 6.30963 14.9269
297 99 5 -0.82 7.96896 6.75752 14.0104
298 100 3 0.41 -0.298283 -0.884661 -1.5868
299 100 3 0.41 0.762985 0.278709 -1.84704
300 100 5 -0.82 0.140984 -0.0705586 -1.11141
301 101 3 0.41 8.78115 0.037301 -0.88215
302 101 3 0.41 9.74098 -1.21207 -0.26307
303 101 5 -0.82 9.32939 -0.843607 -1.09836
304 102 3 0.41 6.73621 8.294 -18.7419
305 102 3 0.41 6.33718 9.39136 -19.9007
306 102 5 -0.82 6.49108 8.37508 -19.7191
307 103 3 0.41 6.70921 8.97265 10.0212
308 103 3 0.41 6.43652 9.60571 8.5877
309 103 5 -0.82 6.49453 8.70991 9.05514
310 104 3 0.41 11.735 11.6794 -4.97134
311 104 3 0.41 10.3413 11.051 -4.41845
312 104 5 -0.82 11.3635 11.0234 -4.27853
313 105 3 0.41 3.98289 4.76359 11.456
314 105 3 0.41 3.33277 5.76375 10.4526
315 105 5 -0.82 3.73807 4.8373 10.4732
316 106 3 0.41 4.4092 6.31016 -1.31102
317 106 3 0.41 3.62862 7.52302 -0.554734
318 106 5 -0.82 3.52425 6.48239 -0.776512
319 107 3 0.41 6.72859 9.73792 -2.7093
320 107 3 0.41 7.07895 8.39277 -3.45623
321 107 5 -0.82 6.31728 8.93775 -3.06846
322 108 3 0.41 3.63696 6.79204 -19.2137
323 108 3 0.41 2.23409 6.86394 -19.8847
324 108 5 -0.82 3.17935 6.94314 -20.1358
325 109 3 0.41 11.2657 -1.00014 -22.3611
326 109 3 0.41 -1.26475 -0.767587 -21.7017
327 109 5 -0.82 12.2629 -1.1793 -22.5271
328 110 3 0.41 2.80418 12.2867 -6.2788
329 110 3 0.41 4.02854 -0.692477 -6.57132
330 110 5 -0.82 3.68057 12.4 -6.74476
331 111 3 0.41 7.779 1.92385 -6.37293
332 111 3 0.41 9.00836 2.79803 -5.71731
333 111 5 -0.82 8.29614 2.78189 -6.43006
334 112 3 0.41 -0.665754 -0.702519 -19.4717
335 112 3 0.41 -1.49882 0.648516 -19.8076
336 112 5 -0.82 -0.922314 -0.0515634 -20.2423
337 113 3 0.41 6.31779 0.992853 20.7456
338 113 3 0.41 6.72767 1.13439 19.1699
339 113 5 -0.82 6.05141 0.686907 19.8262
340 114 3 0.41 10.3163 1.46713 -15.4645
341 114 3 0.41 10.9464 2.51962 -16.513
342 114 5 -0.82 11.0378 1.57807 -16.2182
343 115 3 0.41 11.2386 7.51125 -0.185368
344 115 3 0.41 12.0767 7.24609 -1.50244
345 115 5 -0.82 11.4048 7.87055 -1.15052
346 116 3 0.41 10.8901 9.5565 16.9355
347 116 3 0.41 10.2351 11.0902 16.6295
348 116 5 -0.82 10.7073 10.2712 16.2061
349 117 3 0.41 6.71262 7.20327 -20.921
350 117 3 0.41 7.91305 6.43041 -21.7922
351 117 5 -0.82 6.95269 6.80003 -21.8239
352 118 3 0.41 12.4937 9.91589 -3.989
353 118 3 0.41 -0.546546 8.96538 -3.05438
354 118 5 -0.82 -0.604155 9.42911 -3.93749
355 119 3 0.41 6.68479 8.86977 -6.70505
356 119 3 0.41 5.16078 8.27801 -6.38315
357 119 5 -0.82 5.68838 8.86044 -7.03709
358 120 3 0.41 2.25489 -1.21317 16.4387
359 120 3 0.41 1.34952 0.0621445 16.2308
360 120 5 -0.82 2.18199 -0.241068 16.669
361 121 3 0.41 1.66918 5.11909 -13.7849
362 121 3 0.41 0.149097 5.27617 -13.4744
363 121 5 -0.82 0.885085 4.53409 -13.6419
364 122 3 0.41 -0.0689838 9.41578 11.6529
365 122 3 0.41 0.0943572 9.49436 10.0234
366 122 5 -0.82 -0.440695 9.07025 10.7855
367 123 3 0.41 -1.04402 1.81555 -1.97864
368 123 3 0.41 11.6865 2.59878 -1.64037
369 123 5 -0.82 12.1965 2.2817 -2.45124
370 124 3 0.41 4.92615 9.49105 -0.209953
371 124 3 0.41 3.44544 10.018 -0.384586
372 124 5 -0.82 3.9999 9.15422 -0.350921
373 125 3 0.41 4.67764 9.02656 -21.154
374 125 3 0.41 4.08904 10.1847 -21.8342
375 125 5 -0.82 4.93262 9.60254 -21.9142
376 126 3 0.41 7.65096 2.186 -8.83705
377 126 3 0.41 7.00567 0.865174 -9.58593
378 126 5 -0.82 7.185 1.88244 -9.66958
379 127 3 0.41 1.05934 10.9748 13.4965
380 127 3 0.41 -0.510816 11.3969 13.3194
381 127 5 -0.82 0.431086 11.7527 13.4167
382 128 3 0.41 -0.863016 1.11894 13.4363
383 128 3 0.41 11.7167 0.503793 13.5731
384 128 5 -0.82 12.1882 1.33231 13.226
385 129 3 0.41 0.109123 7.01685 9.1198
386 129 3 0.41 1.27639 7.26061 10.1483
387 129 5 -0.82 0.727994 6.52812 9.72187
388 130 3 0.41 5.14005 10.5858 -10.1211
389 130 3 0.41 5.87908 9.88605 -11.3026
390 130 5 -0.82 5.10407 10.5091 -11.1108
391 131 3 0.41 4.55307 10.8892 -15.3663
392 131 3 0.41 5.9644 11.2073 -15.9105
393 131 5 -0.82 5.5249 10.6608 -15.1985
394 132 3 0.41 7.55268 2.13523 -0.540624
395 132 3 0.41 9.09066 1.93212 -0.171194
396 132 5 -0.82 8.26211 1.4119 -0.387121
397 133 3 0.41 8.20876 2.60684 2.32191
398 133 3 0.41 7.33524 3.37736 3.35558
399 133 5 -0.82 7.34115 3.11674 2.36878
400 134 3 0.41 11.2289 6.83174 3.02063
401 134 3 0.41 11.9499 6.66108 4.48561
402 134 5 -0.82 11.1029 6.46063 3.97387
403 135 3 0.41 9.28428 3.92692 -16.9929
404 135 3 0.41 10.0474 4.48822 -18.238
405 135 5 -0.82 9.67605 3.6516 -17.8783
406 136 3 0.41 2.86887 11.8341 10.8617
407 136 3 0.41 1.96812 -1.09016 9.95766
408 136 5 -0.82 1.9759 12.369 10.8294
409 137 3 0.41 0.137294 -0.825954 2.36247
410 137 3 0.41 0.162442 -1.00242 0.672548
411 137 5 -0.82 0.126193 -1.48978 1.54634
412 138 3 0.41 11.28 2.38288 8.60559
413 138 3 0.41 12.2677 3.53514 8.04904
414 138 5 -0.82 11.26 3.31273 8.27783
415 139 3 0.41 6.85508 11.5378 19.7503
416 139 3 0.41 7.89928 -1.3491 19.7292
417 139 5 -0.82 7.78681 11.7307 19.407
418 140 3 0.41 10.78 6.69121 -8.25396
419 140 3 0.41 9.63839 7.46356 -9.24793
420 140 5 -0.82 9.80857 6.98959 -8.3416
421 141 3 0.41 7.11429 10.5519 -21.9599
422 141 3 0.41 7.00876 8.9998 -21.8035
423 141 5 -0.82 7.72578 9.71222 -21.8948
424 142 3 0.41 10.2428 3.36158 -7.64772
425 142 3 0.41 10.6724 3.60338 -6.13482
426 142 5 -0.82 10.9064 3.85922 -7.07483
427 143 3 0.41 12.4965 -0.60663 11.5728
428 143 3 0.41 -0.731394 0.343791 10.6257
429 143 5 -0.82 -0.576593 -0.375538 11.287
430 144 3 0.41 3.34415 5.82084 -17.5212
431 144 3 0.41 4.47431 7.04454 -17.2866
432 144 5 -0.82 4.22377 6.20785 -17.8601
433 145 3 0.41 10.7533 -1.45285 -16.5937
434 145 3 0.41 10.4879 0.050362 -17.0266
435 145 5 -0.82 10.0864 -0.899099 -17.136
436 146 3 0.41 6.01977 -0.4926 -10.6497
437 146 3 0.41 5.97744 12.4798 -9.4204
438 146 5 -0.82 6.58868 -0.969038 -9.98093
439 147 3 0.41 1.49883 11.4524 1.31062
440 147 3 0.41 2.89482 11.5538 0.641679
441 147 5 -0.82 2.48715 11.1556 1.47555
442 148 3 0.41 12.3621 11.1208 16.3384
443 148 3 0.41 -0.0618248 11.3206 16.4739
444 148 5 -0.82 -0.924201 11.7931 16.2314
445 149 3 0.41 -0.299116 4.45781 -1.77219
446 149 3 0.41 0.666912 3.17093 -2.01296
447 149 5 -0.82 0.49256 3.95968 -1.34966
448 150 3 0.41 10.8152 -1.464 -14.3583
449 150 3 0.41 12.3121 -1.31245 -14.8777
450 150 5 -0.82 11.5839 11.9907 -14.7955
451 151 3 0.41 0.905844 1.48139 10.5104
452 151 3 0.41 1.66677 2.10172 11.7607
453 151 5 -0.82 1.78709 1.34745 11.0991
454 152 3 0.41 3.39667 3.7732 5.97097
455 152 3 0.41 2.09884 3.1463 5.19306
456 152 5 -0.82 3.13245 3.13936 5.23471
457 153 3 0.41 1.56778 1.72846 13.8957
458 153 3 0.41 0.458434 1.2625 14.9259
459 153 5 -0.82 0.722361 1.16171 13.9251
460 154 3 0.41 6.7484 0.332598 -18.6536
461 154 3 0.41 5.20644 0.134243 -18.7672
462 154 5 -0.82 6.04226 0.0311312 -19.3269
463 155 3 0.41 3.96191 5.4101 18.7199
464 155 3 0.41 4.25101 5.67529 20.2338
465 155 5 -0.82 3.57985 5.20668 19.6488
466 156 3 0.41 7.62209 10.9466 -4.72483
467 156 3 0.41 8.33983 10.8035 -3.29701
468 156 5 -0.82 8.54258 10.7165 -4.34547
469 157 3 0.41 12.2077 -1.15146 21.9619
470 157 3 0.41 11.625 -0.858665 23.384
471 157 5 -0.82 11.3119 -0.990749 22.4863
472 158 3 0.41 3.46172 7.19092 -6.29028
473 158 3 0.41 2.61122 8.53052 -6.2252
474 158 5 -0.82 2.96038 7.84427 -6.90841
475 159 3 0.41 11.0019 7.27689 -11.0108
476 159 3 0.41 11.03 8.61957 -10.0417
477 159 5 -0.82 10.4771 8.0457 -10.6841
478 160 3 0.41 12.2029 2.28079 11.9619
479 160 3 0.41 11.3544 3.48052 11.2215
480 160 5 -0.82 12.2568 2.97665 11.1857
481 161 3 0.41 6.64215 -1.3132 1.94052
482 161 3 0.41 5.19913 12.0025 2.25712
483 161 5 -0.82 5.90162 12.0818 1.49882
484 162 3 0.41 1.89147 4.53409 -7.62068
485 162 3 0.41 2.51705 4.58246 -6.15007
486 162 5 -0.82 2.66017 4.13964 -7.0455
487 163 3 0.41 -0.208068 10.736 -15.8022
488 163 3 0.41 0.501859 11.7217 -14.6047
489 163 5 -0.82 0.41595 11.5259 -15.6142
490 164 3 0.41 6.92225 11.6625 -1.32431
491 164 3 0.41 8.48583 11.5555 -1.44685
492 164 5 -0.82 7.6498 11.157 -1.82976
493 165 3 0.41 10.4377 4.33192 17.6129
494 165 3 0.41 9.46324 3.59025 18.7213
495 165 5 -0.82 9.49232 4.04407 17.7775
496 166 3 0.41 11.7215 2.26396 14.6961
497 166 3 0.41 12.3537 3.34091 15.5504
498 166 5 -0.82 11.4831 3.15056 15.1086
499 167 3 0.41 1.06214 5.02271 -10.0541
500 167 3 0.41 0.247119 4.08608 -11.1472
501 167 5 -0.82 1.10547 4.20103 -10.6264
502 168 3 0.41 3.90816 0.139273 -10.9156
503 168 3 0.41 4.36168 1.68195 -10.9088
504 168 5 -0.82 4.6765 0.743679 -11.1985
505 169 3 0.41 11.8075 9.55094 3.43289
506 169 3 0.41 -0.919366 9.14969 2.51395
507 169 5 -0.82 12.061 9.09305 2.58278
508 170 3 0.41 4.08053 3.67067 -6.91385
509 170 3 0.41 5.36576 3.53807 -7.64899
510 170 5 -0.82 4.98334 3.2152 -6.78081
511 171 3 0.41 5.38947 -1.21141 14.109
512 171 3 0.41 5.94588 -0.393015 12.8621
513 171 5 -0.82 6.24298 -1.0528 13.5709
514 172 3 0.41 0.22908 12.4179 20.9492
515 172 3 0.41 -0.0715866 -0.123685 21.5528
516 172 5 -0.82 -0.466554 -0.819084 20.8932
517 173 3 0.41 6.02115 -0.771805 8.52366
518 173 3 0.41 7.08905 12.2032 7.79738
519 173 5 -0.82 7.01028 -0.97819 8.41912
520 174 3 0.41 1.37141 2.24171 21.6637
521 174 3 0.41 2.07367 3.75443 21.4418
522 174 5 -0.82 1.99474 2.83424 21.052
523 175 3 0.41 4.76525 11.913 4.71634
524 175 3 0.41 3.63719 -1.32787 3.97613
525 175 5 -0.82 4.48902 12.1404 3.7871
526 176 3 0.41 6.90173 1.15374 -4.08652
527 176 3 0.41 5.63753 1.56624 -3.44783
528 176 5 -0.82 6.47018 2.02419 -3.85736
529 177 3 0.41 6.99186 10.1264 12.1946
530 177 3 0.41 8.34402 9.51273 11.8258
531 177 5 -0.82 7.49042 9.81977 11.3994
532 178 3 0.41 0.102562 12.0053 -22.2101
533 178 3 0.41 1.22861 -0.842509 -21.9979
534 178 5 -0.82 1.08287 12.2228 -22.3278
535 179 3 0.41 0.189431 1.82741 -21.4978
536 179 3 0.41 -0.00632103 3.48838 -21.4846
537 179 5 -0.82 -0.194346 2.63286 -21.9934
538 180 3 0.41 1.62784 6.0502 3.23257
539 180 3 0.41 1.1209 7.50341 2.96052
540 180 5 -0.82 0.95147 6.7115 3.53984
541 181 3 0.41 2.61727 2.12139 -15.1095
542 181 3 0.41 2.0578 3.22026 -16.1961
543 181 5 -0.82 1.89461 2.29918 -15.8386
544 182 3 0.41 2.50402 -0.177908 -18.6325
545 182 3 0.41 2.98452 -1.15428 -19.8501
546 182 5 -0.82 2.94885 -0.222729 -19.5644
547 183 3 0.41 2.36953 5.42081 -15.7486
548 183 3 0.41 1.16054 5.35377 -16.7905
549 183 5 -0.82 2.13072 5.05985 -16.6915
550 184 3 0.41 3.28857 2.02546 7.1597
551 184 3 0.41 3.20423 3.27114 8.27361
552 184 5 -0.82 3.13014 2.24188 8.14274
553 185 3 0.41 0.309512 6.88974 -10.5845
554 185 3 0.41 1.57948 7.63023 -9.95601
555 185 5 -0.82 1.21871 7.26273 -10.8001
556 186 3 0.41 5.76879 -0.0333993 -6.13817
557 186 3 0.41 5.30921 1.43003 -5.5403
558 186 5 -0.82 4.96654 0.582209 -5.99872
559 187 3 0.41 1.81919 7.78814 6.72407
560 187 3 0.41 2.59987 7.02771 5.6024
561 187 5 -0.82 2.01852 6.86725 6.40709
562 188 3 0.41 11.9883 10.0284 -22.2261
563 188 3 0.41 -0.648891 10.4346 -21.2397
564 188 5 -0.82 -0.961648 9.93687 -22.0737
565 189 3 0.41 5.59421 8.39723 15.2026
566 189 3 0.41 5.65081 8.0251 16.7466
567 189 5 -0.82 6.11784 8.60705 16.0673
568 190 3 0.41 9.10384 1.16186 17.823
569 190 3 0.41 7.78208 1.94093 17.7384
570 190 5 -0.82 8.25098 1.23276 18.3205
571 191 3 0.41 3.38199 9.21655 17.6545
572 191 3 0.41 3.22266 8.92268 19.3128
573 191 5 -0.82 3.59267 9.58411 18.6273
574 192 3 0.41 -0.140711 10.569 19.709
575 192 3 0.41 12.4469 10.0048 20.3854
576 192 5 -0.82 -0.903709 9.90723 19.6047
577 193 3 0.41 12.3763 6.36814 12.2379
578 193 3 0.41 12.3029 7.9139 11.9721
579 193 5 -0.82 11.7586 7.1707 12.3097
580 194 3 0.41 5.80959 3.16284 20.2914
581 194 3 0.41 7.19456 3.54239 19.6609
582 194 5 -0.82 6.23759 3.37449 19.3884
583 195 3 0.41 10.7315 5.66084 6.1948
584 195 3 0.41 10.1571 7.16723 6.51901
585 195 5 -0.82 10.2136 6.21601 6.83519
586 196 3 0.41 -1.36163 6.11778 -21.6252
587 196 3 0.41 11.8945 4.60297 -21.3725
588 196 5 -0.82 12.1629 5.33827 -22.0757
589 197 3 0.41 7.10942 11.0816 6.45049
590 197 3 0.41 5.82843 10.3743 7.15801
591 197 5 -0.82 6.80868 10.5753 7.28704
592 198 3 0.41 7.59066 4.25136 -13.2562
593 198 3 0.41 8.19495 3.03992 -12.5214
594 198 5 -0.82 7.29221 3.50179 -12.667
595 199 3 0.41 8.44443 -1.14873 -15.2768
596 199 3 0.41 9.0276 11.5478 -14.6405
597 199 5 -0.82 8.76813 -1.48138 -14.3894
598 200 3 0.41 7.95836 0.310983 7.92937
599 200 3 0.41 8.04772 1.88114 7.88763
600 200 5 -0.82 8.58857 1.07874 7.65456
601 201 3 0.41 9.88399 -0.924033 11.5364
602 201 3 0.41 10.8608 11.8619 11.8778
603 201 5 -0.82 10.7829 -1.30917 11.2727
604 202 3 0.41 0.976631 1.93568 -14.1345
605 202 3 0.41 1.15605 1.53588 -12.5936
606 202 5 -0.82 0.493206 1.38019 -13.3897
607 203 3 0.41 7.92531 0.492999 10.9991
608 203 3 0.41 7.97723 -0.609832 9.81963
609 203 5 -0.82 8.31901 -0.415962 10.7702
610 204 3 0.41 4.53601 -1.02753 -16.8119
611 204 3 0.41 3.6552 11.5633 -17.2362
612 204 5 -0.82 4.52408 12.0895 -17.353
613 205 3 0.41 -0.390452 3.54163 -7.0353
614 205 3 0.41 -1.1227 3.48941 -8.53889
615 205 5 -0.82 -0.265576 3.35101 -8.04531
616 206 3 0.41 7.47599 2.60705 9.88991
617 206 3 0.41 6.67107 2.69218 11.3362
618 206 5 -0.82 7.24868 2.09466 10.7752
619 207 3 0.41 -0.00314786 1.47466 3.72677
620 207 3 0.41 -1.19803 0.484781 3.29538
621 207 5 -0.82 -0.171231 0.609165 3.16903
622 208 3 0.41 7.56032 3.68446 6.01534
623 208 3 0.41 8.91197 3.23641 5.33793
624 208 5 -0.82 7.94287 3.48407 5.09681
625 209 3 0.41 6.43463 5.71993 -12.1331
626 209 3 0.41 5.17701 6.05283 -11.1649
627 209 5 -0.82 6.07619 5.58021 -11.189
628 210 3 0.41 -0.179783 4.87275 15.503
629 210 3 0.41 -0.510813 5.39569 14.009
630 210 5 -0.82 -0.460729 5.69273 14.9756
631 211 3 0.41 11.2401 -0.634723 4.31545
632 211 3 0.41 11.7932 0.678981 5.00243
633 211 5 -0.82 11.4139 0.384407 4.09283
634 212 3 0.41 2.41702 10.8784 15.5249
635 212 3 0.41 1.26759 10.35 16.6043
636 212 5 -0.82 1.86411 11.1182 16.339
637 213 3 0.41 0.926518 8.41322 0.952153
638 213 3 0.41 1.30675 9.75883 1.76653
639 213 5 -0.82 0.567653 9.10613 1.6462
640 214 3 0.41 1.77514 8.2119 -12.7003
641 214 3 0.41 0.533082 8.25385 -13.7315
642 214 5 -0.82 1.5164 7.97488 -13.6701
643 215 3 0.41 4.48464 8.55459 -9.56162
644 215 3 0.41 3.26218 8.4346 -8.4456
645 215 5 -0.82 3.48921 8.83962 -9.38823
646 216 3 0.41 3.61275 7.25842 3.44202
647 216 3 0.41 4.76595 6.30458 4.2247
648 216 5 -0.82 4.04157 6.98254 4.31295
649 217 3 0.41 12.0469 2.94514 -11.0543
650 217 3 0.41 11.4333 2.58602 -9.64566
651 217 5 -0.82 11.7403 3.37372 -10.1734
652 218 3 0.41 5.64452 7.12372 10.2478
653 218 3 0.41 5.74107 7.24914 11.8109
654 218 5 -0.82 5.96676 6.59267 11.051
655 219 3 0.41 7.43595 4.84863 -5.17697
656 219 3 0.41 6.63297 3.59643 -4.6827
657 219 5 -0.82 6.56118 4.58906 -4.73686
658 220 3 0.41 11.6681 1.24784 17.3984
659 220 3 0.41 12.4626 1.64192 18.6937
660 220 5 -0.82 11.5709 1.76538 18.2577
661 221 3 0.41 5.67047 1.63644 -13.2774
662 221 3 0.41 6.21349 0.0997355 -13.329
663 221 5 -0.82 6.21565 0.998154 -13.8014
664 222 3 0.41 4.87762 4.87756 -19.3014
665 222 3 0.41 6.44222 4.88818 -19.4704
666 222 5 -0.82 5.60473 4.3021 -19.6802
667 223 3 0.41 1.77198 1.87358 -10.4148
668 223 3 0.41 0.660718 2.34472 -9.22563
669 223 5 -0.82 1.0109 1.5577 -9.79902
670 224 3 0.41 0.309104 -0.72648 6.51426
671 224 3 0.41 1.11584 11.7685 6.20314
672 224 5 -0.82 0.875071 -1.28321 5.89112
673 225 3 0.41 6.96011 12.3141 -5.01042
674 225 3 0.41 5.63098 11.4967 -5.34574
675 225 5 -0.82 6.49876 11.8114 -5.77761
676 226 3 0.41 -1.43775 5.72741 16.3969
677 226 3 0.41 -1.4891 5.32174 18.0001
678 226 5 -0.82 11.9936 5.52097 17.1901
679 227 3 0.41 9.12139 6.28425 19.4135
680 227 3 0.41 10.0564 7.386 19.062
681 227 5 -0.82 10.0667 6.55662 19.5985
682 228 3 0.41 -1.4939 9.01499 -8.20496
683 228 3 0.41 -0.55718 9.4648 -9.37992
684 228 5 -0.82 -1.30135 8.80103 -9.18308
685 229 3 0.41 11.0395 1.28083 -21.3903
686 229 3 0.41 11.993 2.26856 -22.2597
687 229 5 -0.82 11.1429 1.71568 -22.3042
688 230 3 0.41 0.845134 2.44332 -7.17878
689 230 3 0.41 1.06074 1.46839 -5.83417
690 230 5 -0.82 1.06269 1.50855 -6.84948
691 231 3 0.41 2.16379 4.18387 -0.640258
692 231 3 0.41 3.49407 4.57578 0.185917
693 231 5 -0.82 2.92669 3.73962 -0.0781492
694 232 3 0.41 2.51364 1.12621 -7.74338
695 232 3 0.41 4.01603 1.24212 -7.47314
696 232 5 -0.82 3.38205 1.08652 -8.26034
697 233 3 0.41 3.94213 4.43755 -4.2877
698 233 3 0.41 3.5118 3.54754 -3.04292
699 233 5 -0.82 4.274 4.08493 -3.36866
700 234 3 0.41 -1.18601 11.2462 -1.69723
701 234 3 0.41 12.2443 11.7024 -3.10104
702 234 5 -0.82 -1.04272 11.971 -2.38097
703 235 3 0.41 9.5959 3.9603 8.1619
704 235 3 0.41 8.26229 4.7739 8.49286
705 235 5 -0.82 8.71087 3.90632 8.67165
706 236 3 0.41 8.20562 4.01247 1.27126
707 236 3 0.41 8.59038 4.66856 -0.243291
708 236 5 -0.82 8.86859 4.56303 0.782133
709 237 3 0.41 0.154182 11.5066 8.43956
710 237 3 0.41 -0.341831 12.3271 9.78194
711 237 5 -0.82 -0.327645 12.3435 8.76033
712 238 3 0.41 0.102547 6.48686 4.89849
713 238 3 0.41 -0.684272 5.81285 6.18494
714 238 5 -0.82 -0.677997 6.60457 5.55196
715 239 3 0.41 12.3288 10.9335 0.409751
716 239 3 0.41 -0.744776 9.61607 0.084707
717 239 5 -0.82 -1.3296 10.2986 -0.320006
718 240 3 0.41 7.80483 0.42012 3.27913
719 240 3 0.41 8.27905 0.745266 1.79853
720 240 5 -0.82 7.86037 0.0348346 2.37367
721 241 3 0.41 6.90615 1.68389 4.64999
722 241 3 0.41 6.07429 1.87669 5.91559
723 241 5 -0.82 5.96503 1.48541 4.97593
724 242 3 0.41 -0.385592 4.35289 1.46345
725 242 3 0.41 -0.45826 5.48734 2.50325
726 242 5 -0.82 -0.602185 5.32266 1.53002
727 243 3 0.41 3.15393 2.73453 -18.832
728 243 3 0.41 2.05298 1.71499 -19.4862
729 243 5 -0.82 2.3188 2.71906 -19.4692
730 244 3 0.41 8.91406 8.28122 21.748
731 244 3 0.41 8.93519 7.60088 23.2746
732 244 5 -0.82 8.979 7.40693 22.268
733 245 3 0.41 3.98415 4.02542 -22.4028
734 245 3 0.41 3.27126 3.32923 -21.1014
735 245 5 -0.82 3.48279 3.18664 -22.0951
736 246 3 0.41 10.5551 -0.993213 19.9154
737 246 3 0.41 12.1046 -1.13676 19.8278
738 246 5 -0.82 11.2663 -1.4225 19.3706
739 247 3 0.41 12.2383 9.81349 14.0796
740 247 3 0.41 11.9694 11.3979 14.2295
741 247 5 -0.82 12.059 10.6712 13.523
742 248 3 0.41 10.2736 6.39115 10.7027
743 248 3 0.41 8.72505 6.37881 10.3738
744 248 5 -0.82 9.3369 6.50369 11.1443
745 249 3 0.41 5.18489 0.686956 -15.3587
746 249 3 0.41 3.59031 0.513758 -15.6683
747 249 5 -0.82 4.51449 0.524779 -16.1005
748 250 3 0.41 -0.370313 8.0626 21.8027
749 250 3 0.41 0.479078 7.29448 22.9187
750 250 5 -0.82 0.534605 7.76522 22.0135
751 251 3 0.41 8.91275 2.67879 11.4362
752 251 3 0.41 9.40674 3.60048 10.1361
753 251 5 -0.82 9.55089 3.42313 11.1641