ITEM: TIMESTEP
45000
ITEM: NUMBER OF ATOMS
1360
ITEM: BOX BOUNDS pp pp pp
-1.5000000000000000e+00 1.2500000000000000e+01
-1.5000000000000000e+00 1.2500000000000000e+01
-2.7500000000000000e+01 2.7500000000000000e+01
ITEM: ATOMS id mol type q x y z
1 1 3 0.41 2.50037 -1.22164 4.96275
2 1 3 0.41 3.4104 12.2035 3.86653
3 1 5 -0.82 3.07926 -0.919897 4.16133
4 2 3 0.41 6.23672 6.61868 -17.1906
5 2 3 0.41 5.06161 7.70197 -16.6001
6 2 5 -0.82 5.85116 7.58371 -17.1932
7 3 3 0.41 0.585656 0.970679 13.8379
8 3 3 0.41 1.6336 1.8499 14.5343
9 3 5 -0.82 0.803327 1.93525 14.0253
10 4 3 0.41 3.4559 11.3973 -20.129
11 4 3 0.41 2.14693 12.4263 -19.8514
12 4 5 -0.82 2.62839 11.799 -20.5496
13 5 3 0.41 6.80382 6.47422 -12.1056
14 5 3 0.41 6.79785 5.12912 -11.15
15 5 5 -0.82 6.2349 5.70419 -11.746
16 6 3 0.41 6.4363 -0.97121 -21.231
17 6 3 0.41 7.27034 -1.45143 -22.5973
18 6 5 -0.82 6.50382 -0.907533 -22.2704
19 7 3 0.41 2.67399 9.87687 -16.859
20 7 3 0.41 4.03785 10.3501 -17.6513
21 7 5 -0.82 3.65237 9.67504 -16.9983
22 8 3 0.41 1.67717 3.63884 16.298
23 8 3 0.41 1.4247 3.99873 17.8102
24 8 5 -0.82 1.31135 3.21966 17.1438
25 9 3 0.41 3.54088 5.33836 -18.8088
26 9 3 0.41 2.53214 4.26995 -19.4364
27 9 5 -0.82 3.50975 4.58536 -19.4418
28 10 3 0.41 -0.121992 5.90611 8.47541
29 10 3 0.41 -0.621448 7.40222 9.07431
30 10 5 -0.82 -0.852167 6.44577 8.90128
31 11 3 0.41 5.6106 8.88872 -10.8469
32 11 3 0.41 4.71525 8.14228 -9.7451
33 11 5 -0.82 4.88851 9.05218 -10.1711
34 12 3 0.41 8.32818 11.9273 -13.604
35 12 3 0.41 7.31587 -0.882128 -14.1473
36 12 5 -0.82 8.21676 -1.07631 -13.7044
37 13 3 0.41 8.67912 11.0033 6.5136
38 13 3 0.41 8.28361 10.9675 8.11511
39 13 5 -0.82 8.9864 11.2385 7.47326
40 14 3 0.41 0.620383 6.14777 -18.5037
41 14 3 0.41 -0.700474 6.03167 -19.3545
42 14 5 -0.82 0.282961 5.68079 -19.3286
43 15 3 0.41 5.36555 5.13705 1.69614
44 15 3 0.41 3.93464 4.82718 1.05228
45 15 5 -0.82 4.87003 5.05938 0.784784
46 16 3 0.41 12.1895 3.93589 8.29086
47 16 3 0.41 12.4567 2.46818 8.74426
48 16 5 -0.82 11.9509 3.26238 9.03883
49 17 3 0.41 7.83764 11.6798 23.2979
50 17 3 0.41 7.77886 10.5921 22.1281
51 17 5 -0.82 7.81697 11.5509 22.2811
52 18 3 0.41 3.10785 -1.07475 -21.6082
53 18 3 0.41 4.60968 -1.02495 -22.2278
54 18 5 -0.82 3.68703 -0.587433 -22.2969
55 19 3 0.41 2.8312 8.41498 9.66329
56 19 3 0.41 1.49212 8.07099 10.4676
57 19 5 -0.82 2.01007 7.90183 9.62806
58 20 3 0.41 2.32565 10.0877 -12.0561
59 20 3 0.41 1.93121 9.54813 -13.4816
60 20 5 -0.82 2.36224 10.3586 -13.0264
61 21 3 0.41 9.08237 -1.2632 20.3479
62 21 3 0.41 10.1028 11.4796 20.6633
63 21 5 -0.82 9.43398 11.8574 19.9931
64 22 3 0.41 8.28948 -0.507321 -19.0643
65 22 3 0.41 9.49793 0.352184 -18.5063
66 22 5 -0.82 9.10819 -0.0557134 -19.3436
67 23 3 0.41 2.10791 -0.0446881 -15.6092
68 23 3 0.41 1.30733 -1.31659 -15.0418
69 23 5 -0.82 1.39914 -0.759025 -15.9273
70 24 3 0.41 8.02046 8.15677 -16.871
71 24 3 0.41 8.99759 6.93871 -16.5561
72 24 5 -0.82 8.93665 7.78742 -17.0762
73 25 3 0.41 -1.33012 4.71301 -14.2261
74 25 3 0.41 -0.119032 5.3989 -15.125
75 25 5 -0.82 -0.486851 4.52725 -14.7837
76 26 3 0.41 5.07557 -0.914366 -14.7928
77 26 3 0.41 6.07177 0.281999 -14.743
78 26 5 -0.82 6.02468 -0.636585 -15.0634
79 27 3 0.41 6.18965 10.6773 -13.2814
80 27 3 0.41 5.65709 11.3922 -12.0217
81 27 5 -0.82 6.54865 10.9969 -12.3971
82 28 3 0.41 2.04797 2.89313 -7.52043
83 28 3 0.41 1.24138 3.50565 -8.77134
84 28 5 -0.82 2.18484 3.48468 -8.38004
85 29 3 0.41 10.3209 10.1039 22.3484
86 29 3 0.41 11.0815 9.84405 20.947
87 29 5 -0.82 11.0159 10.4747 21.7462
88 30 3 0.41 -0.499148 0.464419 6.86989
89 30 3 0.41 0.583892 -0.517762 7.15025
90 30 5 -0.82 -0.298351 -0.203541 7.54335
91 31 3 0.41 10.5225 8.4658 -19.7659
92 31 3 0.41 9.01817 8.11552 -19.2616
93 31 5 -0.82 9.55495 8.37031 -20.0774
94 32 3 0.41 8.51397 9.56139 -13.9673
95 32 3 0.41 8.59868 10.5639 -15.2108
96 32 5 -0.82 8.97122 10.3408 -14.3021
97 33 3 0.41 11.9674 5.52892 -16.4913
98 33 3 0.41 11.0934 6.62553 -15.7159
99 33 5 -0.82 11.0134 5.78147 -16.2688
100 34 3 0.41 0.498807 9.85065 8.59323
101 34 3 0.41 0.932855 8.37227 8.2807
102 34 5 -0.82 0.208893 9.0517 8.01213
103 35 3 0.41 0.698076 9.06144 17.1238
104 35 3 0.41 0.268549 10.3681 17.8283
105 35 5 -0.82 0.598807 10.061 16.9633
106 36 3 0.41 2.23056 11.0922 -6.49113
107 36 3 0.41 1.33371 11.149 -7.70687
108 36 5 -0.82 1.82528 11.7841 -7.10357
109 37 3 0.41 -0.988202 7.48023 22.1508
110 37 3 0.41 11.7478 8.003 23.0647
111 37 5 -0.82 12.0024 7.70946 22.1351
112 38 3 0.41 1.33529 6.29644 -7.1263
113 38 3 0.41 1.88071 5.25166 -8.30843
114 38 5 -0.82 1.61634 6.20471 -8.09323
115 39 3 0.41 7.92145 4.89189 -17.4561
116 39 3 0.41 9.56309 5.04832 -17.4111
117 39 5 -0.82 8.77424 4.94729 -18.0095
118 40 3 0.41 11.9689 1.46308 -21.1259
119 40 3 0.41 10.4664 1.4343 -21.8636
120 40 5 -0.82 11.4414 1.7746 -21.9644
121 41 3 0.41 -0.836148 9.23865 -15.3877
122 41 3 0.41 -1.28549 10.3772 -14.3894
123 41 5 -0.82 12.323 9.75922 -15.0691
124 42 3 0.41 6.42094 3.40086 5.84364
125 42 3 0.41 7.22712 4.48513 5.03023
126 42 5 -0.82 6.40738 3.83712 4.95465
127 43 3 0.41 8.36605 10.9132 18.848
128 43 3 0.41 7.06485 10.4957 18.1082
129 43 5 -0.82 7.77174 10.1159 18.7485
130 44 3 0.41 9.4608 11.3827 -21.5459
131 44 3 0.41 9.98563 -1.45667 -22.6348
132 44 5 -0.82 9.17633 12.0722 -22.2288
133 45 3 0.41 8.34212 7.63071 7.4689
134 45 3 0.41 9.19501 6.85414 8.49489
135 45 5 -0.82 8.3002 7.41031 8.4519
136 46 3 0.41 6.89934 0.777406 21.5804
137 46 3 0.41 6.31043 0.904962 23.1218
138 46 5 -0.82 6.07962 1.03277 22.1514
139 47 3 0.41 11.5881 6.3012 8.8003
140 47 3 0.41 10.5578 5.44816 7.95163
141 47 5 -0.82 10.5568 6.12097 8.71861
142 48 3 0.41 9.88721 10.2943 8.85102
143 48 3 0.41 10.0337 10.775 10.4461
144 48 5 -0.82 10.259 10.0083 9.75905
145 49 3 0.41 10.5519 2.42677 2.4148
146 49 3 0.41 10.927 2.86829 3.95303
147 49 5 -0.82 11.1417 3.03143 2.95406
148 50 3 0.41 5.73399 2.2652 16.4848
149 50 3 0.41 6.86893 1.3262 17.1264
150 50 5 -0.82 6.50095 1.66964 16.2608
151 51 3 0.41 1.11077 1.46384 2.3713
152 51 3 0.41 1.8802 0.0559856 2.86116
153 51 5 -0.82 2.0167 0.93938 2.37782
154 52 3 0.41 4.22187 3.30437 -11.0711
155 52 3 0.41 2.73299 3.06795 -11.5132
156 52 5 -0.82 3.62916 3.32655 -11.9271
157 53 3 0.41 4.42145 7.5658 7.50185
158 53 3 0.41 6.00996 7.29986 8.00056
159 53 5 -0.82 5.13156 6.89463 7.92861
160 54 3 0.41 5.25382 10.1941 15.6292
161 54 3 0.41 5.39815 11.4721 14.7716
162 54 5 -0.82 5.46044 10.4653 14.7051
163 55 3 0.41 3.8735 7.57714 -0.52121
164 55 3 0.41 5.14551 6.55871 -0.445059
165 55 5 -0.82 4.73432 7.28213 -1.0335
166 56 3 0.41 10.5348 1.66809 0.464858
167 56 3 0.41 9.33856 0.781967 0.951892
168 56 5 -0.82 10.0924 1.32936 1.28513
169 57 3 0.41 0.968059 9.64393 -18.4527
170 57 3 0.41 1.58293 9.19816 -19.9677
171 57 5 -0.82 0.737284 9.49944 -19.4285
172 58 3 0.41 8.46403 2.06107 -21.276
173 58 3 0.41 8.68712 0.59464 -20.913
174 58 5 -0.82 8.64744 1.18443 -21.7313
175 59 3 0.41 0.0236045 7.63817 -5.57609
176 59 3 0.41 0.230653 6.59812 -4.44792
177 59 5 -0.82 0.301467 6.68011 -5.46775
178 60 3 0.41 7.71832 7.07695 -1.44538
179 60 3 0.41 9.01712 7.16777 -0.534625
180 60 5 -0.82 8.07689 6.77136 -0.530541
181 61 3 0.41 -0.748778 1.78162 14.4774
182 61 3 0.41 12.4834 2.12716 15.8211
183 61 5 -0.82 12.3409 2.07045 14.8096
184 62 3 0.41 1.79793 3.90834 -4.87148
185 62 3 0.41 1.57084 5.30553 -5.47975
186 62 5 -0.82 2.12777 4.46177 -5.64201
187 63 3 0.41 5.53963 9.24698 20.6254
188 63 3 0.41 6.44471 9.01386 19.3839
189 63 5 -0.82 5.52081 8.78088 19.7425
190 64 3 0.41 7.95251 2.62791 7.62751
191 64 3 0.41 6.4831 2.14903 8.12795
192 64 5 -0.82 7.00617 2.40273 7.30446
193 65 3 0.41 9.52545 8.03359 2.69123
194 65 3 0.41 10.0343 6.4423 2.93286
195 65 5 -0.82 9.66798 7.2858 3.39546
196 66 3 0.41 2.63772 3.52409 2.4604
197 66 3 0.41 2.02819 4.88547 2.10422
198 66 5 -0.82 2.29569 4.04326 1.65037
199 67 3 0.41 5.61148 9.8767 17.4784
200 67 3 0.41 4.42427 11.007 17.3412
201 67 5 -0.82 5.41891 10.8403 17.6617
202 68 3 0.41 2.3744 0.144816 19.6466
203 68 3 0.41 2.05111 -0.889113 20.8994
204 68 5 -0.82 2.61664 -0.774007 20.0481
205 69 3 0.41 3.224 11.5529 -13.9687
206 69 3 0.41 3.3708 -0.957795 -13.5438
207 69 5 -0.82 3.60548 12.4124 -14.3225
208 70 3 0.41 1.21625 0.944007 -8.13026
209 70 3 0.41 -0.181378 0.292255 -8.42193
210 70 5 -0.82 0.648116 0.609416 -8.89451
211 71 3 0.41 10.127 3.42539 8.73602
212 71 3 0.41 8.65739 4.08949 8.73776
213 71 5 -0.82 9.20299 3.3768 8.33377
214 72 3 0.41 6.85019 6.3938 15.3914
215 72 3 0.41 7.21705 5.28113 14.2941
216 72 5 -0.82 6.8016 5.4138 15.1971
217 73 3 0.41 1.93661 12.3503 -5.54402
218 73 3 0.41 2.97928 -0.886892 -4.45493
219 73 5 -0.82 2.23034 12.4041 -4.54665
220 74 3 0.41 4.84732 2.99386 9.17362
221 74 3 0.41 4.89203 1.56178 10.1156
222 74 5 -0.82 5.30633 2.09621 9.37725
223 75 3 0.41 3.7679 7.44362 -12.372
224 75 3 0.41 3.86369 8.98453 -12.2493
225 75 5 -0.82 4.22229 8.25334 -12.8378
226 76 3 0.41 12.3306 -0.123109 -10.2279
227 76 3 0.41 11.9018 -1.17335 -11.4408
228 76 5 -0.82 -1.34731 -0.699245 -11.0055
229 77 3 0.41 8.69025 10.196 15.3602
230 77 3 0.41 8.20388 11.6 15.9713
231 77 5 -0.82 8.53872 11.1683 15.0843
232 78 3 0.41 1.98118 4.82757 -14.5593
233 78 3 0.41 3.29843 4.35566 -14.7333
234 78 5 -0.82 2.48501 4.38255 -15.3144
235 79 3 0.41 11.9008 -1.25458 8.69598
236 79 3 0.41 11.6509 11.2139 9.36572
237 79 5 -0.82 12.1939 12.0921 9.39185
238 80 3 0.41 10.8277 2.3777 -18.5538
239 80 3 0.41 11.0914 3.73473 -19.2424
240 80 5 -0.82 11.5726 2.91289 -18.8761
241 81 3 0.41 7.97817 -0.499169 -2.8104
242 81 3 0.41 8.68595 0.579029 -2.02927
243 81 5 -0.82 8.79805 -0.398035 -2.28311
244 82 3 0.41 3.13742 4.69933 15.1795
245 82 3 0.41 2.61761 3.73638 14.0845
246 82 5 -0.82 3.01585 3.70028 15.0088
247 83 3 0.41 1.76864 4.88229 8.90549
248 83 3 0.41 2.09581 6.27541 9.6929
249 83 5 -0.82 1.94885 5.24806 9.81995
250 84 3 0.41 4.57163 11.6822 11.5885
251 84 3 0.41 4.9439 -1.1101 10.7534
252 84 5 -0.82 4.55632 -1.30938 11.6736
253 85 3 0.41 8.84008 5.08471 22.1652
254 85 3 0.41 9.48506 6.09701 23.1867
255 85 5 -0.82 9.47773 5.8734 22.1701
256 86 3 0.41 6.28357 1.07318 -11.4824
257 86 3 0.41 7.69277 1.54829 -12.1983
258 86 5 -0.82 6.66263 1.43555 -12.3729
259 87 3 0.41 4.69657 3.39945 4.14693
260 87 3 0.41 3.13862 3.89086 4.24593
261 87 5 -0.82 3.78292 3.27645 3.72694
262 88 3 0.41 2.51956 9.71866 22.9133
263 88 3 0.41 1.31627 10.0286 21.9143
264 88 5 -0.82 2.33623 10.0195 21.964
265 89 3 0.41 3.49376 11.5112 -11.3835
266 89 3 0.41 3.85236 -1.27536 -10.6328
267 89 5 -0.82 4.32503 12.1172 -11.3341
268 90 3 0.41 10.8696 0.989065 -14.3419
269 90 3 0.41 9.73941 0.54988 -13.205
270 90 5 -0.82 10.0676 1.28337 -13.8197
271 91 3 0.41 11.6487 -1.14901 5.6621
272 91 3 0.41 10.5683 -0.304 4.72121
273 91 5 -0.82 11.4897 -0.259517 5.12104
274 92 3 0.41 11.065 9.97684 3.38614
275 92 3 0.41 11.4893 8.61666 3.97888
276 92 5 -0.82 11.2386 9.53481 4.27542
277 93 3 0.41 0.0142872 6.9613 11.8601
278 93 3 0.41 1.18359 7.36434 13.0383
279 93 5 -0.82 0.727502 7.60997 12.1648
280 94 3 0.41 12.4873 3.33248 -0.0800426
281 94 3 0.41 11.3911 2.7631 -1.0436
282 94 5 -0.82 12.1199 2.43623 -0.371942
283 95 3 0.41 4.0526 0.544132 14.4303
284 95 3 0.41 3.56225 2.17055 14.7529
285 95 5 -0.82 3.26559 1.16008 14.6743
286 96 3 0.41 9.46988 9.5657 11.165
287 96 3 0.41 8.44309 9.97862 12.4043
288 96 5 -0.82 9.33296 9.52852 12.1613
289 97 3 0.41 -0.555637 4.61266 22.2942
290 97 3 0.41 11.9213 4.74854 22.9925
291 97 5 -0.82 12.4498 4.68603 22.1377
292 98 3 0.41 11.5085 6.21511 -20.2906
293 98 3 0.41 10.6317 6.05448 -18.9344
294 98 5 -0.82 11.5385 5.90811 -19.3525
295 99 3 0.41 5.87222 8.80771 14.1274
296 99 3 0.41 5.50041 7.40205 13.4322
297 99 5 -0.82 6.31114 7.98334 13.7051
298 100 3 0.41 -1.23707 1.15836 0.936029
299 100 3 0.41 11.7804 0.0834936 1.59598
300 100 5 -0.82 -1.23628 0.206964 1.23221
301 101 3 0.41 7.40516 11.6847 0.829488
302 101 3 0.41 6.88781 10.2262 1.19365
303 101 5 -0.82 7.69511 10.8364 1.32848
304 102 3 0.41 7.0231 9.66715 -19.3385
305 102 3 0.41 6.22915 8.48602 -18.5287
306 102 5 -0.82 6.29215 8.96755 -19.4493
307 103 3 0.41 2.20208 7.97764 6.31381
308 103 3 0.41 3.53688 8.76025 5.79834
309 103 5 -0.82 3.15588 8.23495 6.59259
310 104 3 0.41 7.75938 10.6223 -3.51106
311 104 3 0.41 7.87646 11.1743 -5.10008
312 104 5 -0.82 7.98727 10.3982 -4.48133
313 105 3 0.41 3.19624 2.04776 11.9094
314 105 3 0.41 1.86015 1.11857 11.6635
315 105 5 -0.82 2.2505 2.04327 11.5181
316 106 3 0.41 1.76162 4.76586 -0.333991
317 106 3 0.41 1.81029 6.43525 -0.740145
318 106 5 -0.82 1.90667 5.4615 -1.07737
319 107 3 0.41 6.53303 10.9499 -1.69262
320 107 3 0.41 6.01278 9.45322 -1.73578
321 107 5 -0.82 6.81246 9.97349 -2.02646
322 108 3 0.41 6.72567 5.7741 -19.1409
323 108 3 0.41 6.14048 7.25809 -19.8023
324 108 5 -0.82 6.53511 6.28548 -20.0025
325 109 3 0.41 12.0215 12.1304 -22.0203
326 109 3 0.41 11.9124 -0.291943 -22.386
327 109 5 -0.82 11.582 -1.2198 -22.6605
328 110 3 0.41 5.27964 10.327 -9.22657
329 110 3 0.41 5.37702 10.2414 -7.53046
330 110 5 -0.82 5.60616 10.8344 -8.32837
331 111 3 0.41 10.6989 1.91636 -5.36401
332 111 3 0.41 10.4614 0.811416 -4.18536
333 111 5 -0.82 10.3248 1.01299 -5.17902
334 112 3 0.41 0.402857 2.29439 -17.1475
335 112 3 0.41 0.796487 0.706125 -16.725
336 112 5 -0.82 0.203442 1.27813 -17.3024
337 113 3 0.41 4.30558 1.659 18.8901
338 113 3 0.41 5.58774 1.91456 19.86
339 113 5 -0.82 4.83505 1.30794 19.6911
340 114 3 0.41 10.7768 -0.403221 -17.0473
341 114 3 0.41 11.9906 0.736224 -17.3171
342 114 5 -0.82 11.6001 -0.15216 -17.5972
343 115 3 0.41 -0.53082 4.38513 -3.18536
344 115 3 0.41 -0.211352 5.63786 -2.2795
345 115 5 -0.82 -0.750045 5.38056 -3.05412
346 116 3 0.41 11.7522 11.6281 16.2586
347 116 3 0.41 11.2903 11.5567 14.6977
348 116 5 -0.82 11.932 11.1299 15.3618
349 117 3 0.41 10.0531 4.92174 -22.0532
350 117 3 0.41 8.88913 4.03608 -21.3162
351 117 5 -0.82 9.22274 4.40736 -22.2302
352 118 3 0.41 12.3496 8.3176 -2.33953
353 118 3 0.41 12.3195 6.96815 -3.11816
354 118 5 -0.82 11.873 7.90744 -3.12686
355 119 3 0.41 5.99957 10.8471 -5.01045
356 119 3 0.41 5.67452 12.1805 -4.01983
357 119 5 -0.82 5.28424 11.4358 -4.57852
358 120 3 0.41 10.486 11.8378 18.64
359 120 3 0.41 12.0917 11.9654 18.489
360 120 5 -0.82 11.2311 12.0188 17.9301
361 121 3 0.41 10.3604 4.54111 -13.2465
362 121 3 0.41 11.2542 5.79937 -13.3534
363 121 5 -0.82 11.2486 4.93007 -12.864
364 122 3 0.41 -1.04706 5.85773 10.5762
365 122 3 0.41 -0.938068 4.70835 11.7267
366 122 5 -0.82 -1.13816 5.68518 11.573
367 123 3 0.41 11.0051 1.31312 -2.28977
368 123 3 0.41 12.2837 0.415608 -1.73142
369 123 5 -0.82 11.8154 0.733122 -2.57915
370 124 3 0.41 5.04605 10.9127 0.511804
371 124 3 0.41 4.1816 9.79811 -0.145703
372 124 5 -0.82 5.101 9.88521 0.222248
373 125 3 0.41 4.81405 6.2608 -22.1099
374 125 3 0.41 4.60985 7.67879 -21.1826
375 125 5 -0.82 4.4062 7.20341 -22.0758
376 126 3 0.41 10.3453 4.06146 -8.20738
377 126 3 0.41 9.15915 2.97752 -7.86426
378 126 5 -0.82 9.8566 3.2463 -8.51904
379 127 3 0.41 0.269306 10.5338 14.9856
380 127 3 0.41 1.16761 9.68124 14.1272
381 127 5 -0.82 0.459078 10.3054 13.9975
382 128 3 0.41 11.2281 1.29332 13.0429
383 128 3 0.41 10.715 -0.125318 12.7658
384 128 5 -0.82 11.1153 0.648501 12.2446
385 129 3 0.41 1.82146 5.01474 11.3605
386 129 3 0.41 1.81254 3.52024 12.0639
387 129 5 -0.82 1.66798 4.52489 12.2787
388 130 3 0.41 8.92347 -0.349637 -10.7553
389 130 3 0.41 9.49509 -0.830857 -12.1745
390 130 5 -0.82 9.65973 -0.156346 -11.4413
391 131 3 0.41 11.2102 10.3394 -16.3095
392 131 3 0.41 10.1548 9.39556 -16.9455
393 131 5 -0.82 10.3775 10.3459 -16.8526
394 132 3 0.41 5.15577 1.4511 -1.58815
395 132 3 0.41 6.17544 1.95928 -2.78386
396 132 5 -0.82 6.06046 1.89204 -1.7998
397 133 3 0.41 7.88271 2.61223 3.29497
398 133 3 0.41 7.70543 2.73346 1.74207
399 133 5 -0.82 7.36391 2.16132 2.51844
400 134 3 0.41 10.9868 4.78631 2.31389
401 134 3 0.41 9.5653 4.52956 1.39169
402 134 5 -0.82 10.2022 5.23623 1.74402
403 135 3 0.41 12.3884 3.2646 -15.9681
404 135 3 0.41 -1.20174 1.66829 -15.6934
405 135 5 -0.82 12.0251 2.32698 -15.996
406 136 3 0.41 2.13287 10.2662 11.4739
407 136 3 0.41 0.683801 9.57337 11.7225
408 136 5 -0.82 1.14634 10.3986 11.2809
409 137 3 0.41 1.96438 10.4652 1.21503
410 137 3 0.41 2.46757 10.8175 2.62545
411 137 5 -0.82 1.98445 11.2581 1.85789
412 138 3 0.41 9.49118 0.315516 8.62493
413 138 3 0.41 8.83228 0.856794 9.9595
414 138 5 -0.82 8.65502 0.158863 9.2121
415 139 3 0.41 7.59195 1.77041 19.0054
416 139 3 0.41 7.97077 0.328374 19.5768
417 139 5 -0.82 7.64594 0.781287 18.7262
418 140 3 0.41 -0.878524 11.3968 -9.12702
419 140 3 0.41 0.0408981 12.4509 -9.90869
420 140 5 -0.82 0.0811968 11.526 -9.47648
421 141 3 0.41 7.89632 9.74001 -21.111
422 141 3 0.41 7.54411 8.62879 -22.2396
423 141 5 -0.82 7.55137 9.63902 -22.051
424 142 3 0.41 -0.25462 7.21801 -11.0057
425 142 3 0.41 -1.25547 7.52484 -12.1266
426 142 5 -0.82 -0.332006 7.06429 -11.9561
427 143 3 0.41 11.6369 -1.49967 12.3114
428 143 3 0.41 -1.29184 12.1671 11.164
429 143 5 -0.82 -1.42462 12.159 12.156
430 144 3 0.41 4.91674 3.82629 -19.5565
431 144 3 0.41 5.95029 3.01094 -18.7604
432 144 5 -0.82 5.76864 3.2802 -19.7259
433 145 3 0.41 12.1945 12.1831 -17.6459
434 145 3 0.41 11.8257 10.7973 -18.1401
435 145 5 -0.82 -1.3346 11.321 -17.9399
436 146 3 0.41 -0.949499 2.71354 -9.13957
437 146 3 0.41 -1.02022 4.22925 -9.58435
438 146 5 -0.82 -0.427495 3.56315 -9.07222
439 147 3 0.41 1.43788 7.12901 1.92238
440 147 3 0.41 0.442475 6.24665 2.85164
441 147 5 -0.82 1.4024 6.38626 2.61817
442 148 3 0.41 10.7194 -0.648068 16.8084
443 148 3 0.41 10.1939 0.790277 16.5217
444 148 5 -0.82 10.07 -0.158681 16.2048
445 149 3 0.41 1.6546 -0.657771 -3.18467
446 149 3 0.41 1.50967 0.0891192 -1.75833
447 149 5 -0.82 1.39324 0.232049 -2.76013
448 150 3 0.41 0.441017 3.26668 -14.6158
449 150 3 0.41 0.106668 2.11454 -13.5691
450 150 5 -0.82 0.671273 2.30682 -14.3799
451 151 3 0.41 0.392189 -0.0825258 10.7907
452 151 3 0.41 1.74403 -0.56107 10.4224
453 151 5 -0.82 1.16485 -0.609418 11.24
454 152 3 0.41 0.875718 1.57208 5.5886
455 152 3 0.41 2.37004 1.95251 6.01574
456 152 5 -0.82 1.83754 1.44532 5.27666
457 153 3 0.41 -0.891642 -1.01961 13.599
458 153 3 0.41 -0.299054 -0.801006 15.1359
459 153 5 -0.82 -0.153441 -0.606577 14.1565
460 154 3 0.41 7.92189 11.1833 -17.6971
461 154 3 0.41 8.68319 11.5076 -19.0857
462 154 5 -0.82 7.77038 11.1923 -18.7324
463 155 3 0.41 5.73303 5.48486 18.8925
464 155 3 0.41 4.37141 6.34267 18.9468
465 155 5 -0.82 4.85801 5.6344 18.385
466 156 3 0.41 8.51552 9.64735 -1.84173
467 156 3 0.41 9.95171 9.07968 -2.29537
468 156 5 -0.82 9.53647 9.57835 -1.5713
469 157 3 0.41 10.9869 12.2448 22.5627
470 157 3 0.41 11.2591 -0.606947 23.402
471 157 5 -0.82 11.3402 -0.863478 22.4504
472 158 3 0.41 7.77248 8.85009 -9.38497
473 158 3 0.41 6.73657 8.7268 -8.21125
474 158 5 -0.82 7.4689 8.21888 -8.65638
475 159 3 0.41 -0.288319 10.0045 -10.8423
476 159 3 0.41 -0.538377 10.9889 -12.0423
477 159 5 -0.82 -0.858632 10.0653 -11.7091
478 160 3 0.41 12.1862 0.673045 10.8184
479 160 3 0.41 -0.947696 0.269355 9.42474
480 160 5 -0.82 -1.04865 0.911283 10.1915
481 161 3 0.41 4.58668 -0.708417 0.919585
482 161 3 0.41 3.85405 12.0946 1.74195
483 161 5 -0.82 4.67524 12.296 1.11489
484 162 3 0.41 5.95563 4.12538 -7.41735
485 162 3 0.41 7.61062 4.67235 -7.51923
486 162 5 -0.82 6.6735 4.66056 -7.93606
487 163 3 0.41 2.35814 5.83675 -12.4495
488 163 3 0.41 0.961842 6.10626 -13.1506
489 163 5 -0.82 1.94336 5.93615 -13.3561
490 164 3 0.41 10.0875 9.35581 0.318439
491 164 3 0.41 9.33319 9.91276 1.62001
492 164 5 -0.82 9.88417 9.11255 1.31707
493 165 3 0.41 8.19032 6.3475 19.5844
494 165 3 0.41 6.70112 6.39111 20.3503
495 165 5 -0.82 7.20112 6.01527 19.5236
496 166 3 0.41 8.76999 5.20358 17.1569
497 166 3 0.41 7.58294 4.51548 16.4091
498 166 5 -0.82 8.15345 4.34569 17.1964
499 167 3 0.41 7.96743 2.96101 -10.4289
500 167 3 0.41 8.66367 4.31343 -10.3224
501 167 5 -0.82 8.34419 3.6803 -11.0337
502 168 3 0.41 9.35933 0.484888 -8.22617
503 168 3 0.41 8.81374 -1.01366 -8.6396
504 168 5 -0.82 9.40917 -0.484454 -7.93901
505 169 3 0.41 12.0266 8.76933 1.70439
506 169 3 0.41 -0.448306 8.32034 1.95276
507 169 5 -0.82 -1.34845 7.97281 1.70864
508 170 3 0.41 4.78705 -0.102691 -6.78481
509 170 3 0.41 5.04236 -1.33861 -7.88404
510 170 5 -0.82 5.29128 -0.354397 -7.61834
511 171 3 0.41 6.25963 -0.372654 14.1063
512 171 3 0.41 5.68804 -0.407924 15.5449
513 171 5 -0.82 5.54653 -0.814104 14.657
514 172 3 0.41 0.228971 -0.326851 22.3653
515 172 3 0.41 0.674758 12.0903 22.2186
516 172 5 -0.82 0.979938 -0.92314 22.0937
517 173 3 0.41 7.25176 -0.387635 9.4818
518 173 3 0.41 5.79553 -0.377912 8.72558
519 173 5 -0.82 6.27337 -0.715883 9.57362
520 174 3 0.41 12.4338 3.39772 19.9984
521 174 3 0.41 -0.949859 2.72776 18.6735
522 174 5 -0.82 -0.687446 3.09256 19.6256
523 175 3 0.41 6.80038 12.1585 4.47036
524 175 3 0.41 6.18787 12.0353 2.92619
525 175 5 -0.82 6.5841 -1.31592 3.62854
526 176 3 0.41 5.98286 3.68257 -1.93807
527 176 3 0.41 5.73566 4.63915 -0.675559
528 176 5 -0.82 5.79495 4.62228 -1.68722
529 177 3 0.41 6.94154 11.6438 9.42518
530 177 3 0.41 6.08291 10.2265 9.73575
531 177 5 -0.82 6.93858 10.6291 9.3845
532 178 3 0.41 1.51907 -1.25043 -21.9998
533 178 3 0.41 0.364696 -0.182753 -22.048
534 178 5 -0.82 0.608059 -1.12807 -22.3423
535 179 3 0.41 2.57757 3.90765 -21.5689
536 179 3 0.41 0.990258 4.03677 -21.8401
537 179 5 -0.82 1.91363 4.32871 -22.2075
538 180 3 0.41 -1.21277 2.36181 2.49026
539 180 3 0.41 -0.511329 2.19463 3.94387
540 180 5 -0.82 -0.303718 2.20331 2.94755
541 181 3 0.41 6.3686 2.1536 -13.8902
542 181 3 0.41 5.47392 2.91219 -14.9701
543 181 5 -0.82 6.19929 2.23676 -14.8927
544 182 3 0.41 3.10162 1.7615 -20.3437
545 182 3 0.41 3.24006 1.01133 -21.7765
546 182 5 -0.82 3.18916 1.93924 -21.3318
547 183 3 0.41 3.06981 6.50762 -14.8359
548 183 3 0.41 3.86679 7.76929 -14.426
549 183 5 -0.82 3.70674 7.16199 -15.203
550 184 3 0.41 2.10388 12.0637 7.19369
551 184 3 0.41 0.921517 11.9692 6.02418
552 184 5 -0.82 1.70778 -1.47074 6.36
553 185 3 0.41 4.37399 5.79188 -11.5389
554 185 3 0.41 3.64349 6.42852 -10.2589
555 185 5 -0.82 3.47211 6.13586 -11.2546
556 186 3 0.41 3.6386 0.429217 -2.30976
557 186 3 0.41 3.1005 -0.509676 -1.14014
558 186 5 -0.82 3.94563 -0.235507 -1.6272
559 187 3 0.41 0.133748 7.04587 5.81885
560 187 3 0.41 0.992141 7.83445 4.75165
561 187 5 -0.82 1.03353 6.99567 5.35858
562 188 3 0.41 -0.151918 11.3255 -21.6685
563 188 3 0.41 -0.27355 10.3473 -20.4381
564 188 5 -0.82 -0.865631 10.8331 -21.1497
565 189 3 0.41 7.5497 7.7097 17.2517
566 189 3 0.41 6.536 6.53832 17.6368
567 189 5 -0.82 6.60205 7.40403 17.155
568 190 3 0.41 8.71988 -1.0029 16.8674
569 190 3 0.41 7.60143 -0.584031 17.8083
570 190 5 -0.82 7.93131 -1.42638 17.3305
571 191 3 0.41 4.92357 8.04257 16.5545
572 191 3 0.41 3.36822 8.04511 16.468
573 191 5 -0.82 4.11614 8.70194 16.4308
574 192 3 0.41 1.10948 8.87429 19.4364
575 192 3 0.41 0.45256 8.04144 20.6496
576 192 5 -0.82 0.186139 8.57163 19.8307
577 193 3 0.41 10.6206 6.32531 11.9705
578 193 3 0.41 10.4276 7.00064 10.5337
579 193 5 -0.82 9.94249 6.86004 11.4235
580 194 3 0.41 6.89058 3.79882 20.0966
581 194 3 0.41 7.28485 3.65763 18.5404
582 194 5 -0.82 6.82592 3.16291 19.3233
583 195 3 0.41 10.8221 0.648193 6.65064
584 195 3 0.41 10.7421 1.86195 7.61311
585 195 5 -0.82 10.5971 0.862344 7.56349
586 196 3 0.41 12.2717 3.59142 -22.0345
587 196 3 0.41 -0.740118 4.3674 -20.8875
588 196 5 -0.82 -0.969828 4.257 -21.8577
589 197 3 0.41 6.35923 10.1189 6.62175
590 197 3 0.41 7.37154 9.36225 7.68045
591 197 5 -0.82 6.8897 9.21891 6.79764
592 198 3 0.41 8.42838 6.52183 -14.549
593 198 3 0.41 8.48952 4.97854 -14.893
594 198 5 -0.82 8.23585 5.85709 -15.3296
595 199 3 0.41 9.84978 12.0633 -16.2553
596 199 3 0.41 9.10063 -0.786415 -15.3667
597 199 5 -0.82 9.55828 -0.938651 -16.2465
598 200 3 0.41 10.2654 8.33699 6.61316
599 200 3 0.41 9.65708 7.94326 5.16614
600 200 5 -0.82 9.58641 7.732 6.17068
601 201 3 0.41 8.68892 11.9699 11.5373
602 201 3 0.41 9.55967 -0.917159 10.8914
603 201 5 -0.82 9.62186 12.0875 11.0722
604 202 3 0.41 4.43022 0.318814 -12.2088
605 202 3 0.41 3.57673 1.69701 -12.1158
606 202 5 -0.82 3.62653 0.769484 -12.58
607 203 3 0.41 11.5333 10.5861 6.49907
608 203 3 0.41 10.3915 11.6377 6.93929
609 203 5 -0.82 11.4244 11.5705 6.6849
610 204 3 0.41 5.24926 -0.0418763 -18.9313
611 204 3 0.41 6.72827 0.64214 -18.9921
612 204 5 -0.82 6.10589 0.0118857 -19.4677
613 205 3 0.41 4.63071 2.78636 -5.7425
614 205 3 0.41 3.74193 3.92908 -6.35287
615 205 5 -0.82 4.6775 3.5575 -6.431
616 206 3 0.41 7.6063 2.98882 13.6007
617 206 3 0.41 6.71717 2.50765 14.6116
618 206 5 -0.82 6.55526 2.85008 13.6629
619 207 3 0.41 -0.285285 -0.502571 2.48054
620 207 3 0.41 0.772842 12.1599 2.49288
621 207 5 -0.82 -0.0378513 -1.3987 2.91833
622 208 3 0.41 6.22844 4.50039 9.64143
623 208 3 0.41 7.2225 5.58248 10.166
624 208 5 -0.82 7.18546 4.61543 9.90383
625 209 3 0.41 11.7634 9.04075 -11.2726
626 209 3 0.41 10.3935 8.11996 -11.2742
627 209 5 -0.82 11.39 8.0945 -11.0243
628 210 3 0.41 11.2707 5.73629 14.1616
629 210 3 0.41 10.7765 4.09108 14.1718
630 210 5 -0.82 10.5235 5.05686 14.026
631 211 3 0.41 9.69811 10.5642 4.73255
632 211 3 0.41 8.97719 11.7942 4.13659
633 211 5 -0.82 8.83465 11.0854 4.82261
634 212 3 0.41 2.62645 12.3681 16.549
635 212 3 0.41 2.1419 10.8611 16.7739
636 212 5 -0.82 2.91711 11.4009 16.4843
637 213 3 0.41 2.43514 7.26291 -3.01663
638 213 3 0.41 2.17988 8.49343 -2.15659
639 213 5 -0.82 1.97634 8.15791 -3.07044
640 214 3 0.41 4.47169 4.16242 -13.1714
641 214 3 0.41 5.33543 5.39663 -13.7553
642 214 5 -0.82 4.77915 4.58805 -14.037
643 215 3 0.41 9.06895 10.9767 -6.72705
644 215 3 0.41 9.8721 9.67684 -6.14883
645 215 5 -0.82 9.5391 10.1215 -7.03689
646 216 3 0.41 1.25203 5.15326 4.34111
647 216 3 0.41 0.70495 3.69799 3.7614
648 216 5 -0.82 1.31507 4.10651 4.49057
649 217 3 0.41 0.236352 2.46551 -6.48681
650 217 3 0.41 -0.61532 3.45006 -7.51667
651 217 5 -0.82 -0.509864 3.19788 -6.51925
652 218 3 0.41 1.98185 7.79868 14.382
653 218 3 0.41 2.39711 6.43316 14.8916
654 218 5 -0.82 1.58279 6.8731 14.5203
655 219 3 0.41 7.33443 -0.58658 -5.08061
656 219 3 0.41 6.08994 0.0692424 -4.2118
657 219 5 -0.82 7.06171 -0.302121 -4.15426
658 220 3 0.41 9.17225 3.09682 16.8411
659 220 3 0.41 10.0639 2.13534 17.7666
660 220 5 -0.82 9.95324 2.44234 16.7975
661 221 3 0.41 9.38855 2.82302 -13.55
662 221 3 0.41 8.65042 3.65336 -12.5481
663 221 5 -0.82 9.0715 3.77904 -13.4882
664 222 3 0.41 5.3908 3.83436 -22.0923
665 222 3 0.41 5.59596 5.059 -21.1285
666 222 5 -0.82 5.51152 4.86988 -22.0839
667 223 3 0.41 7.5623 1.33713 -8.43103
668 223 3 0.41 6.87318 0.808028 -9.73186
669 223 5 -0.82 7.65699 1.40485 -9.44842
670 224 3 0.41 -1.00347 11.3446 6.10476
671 224 3 0.41 -0.690804 11.8356 4.62077
672 224 5 -0.82 -0.340104 11.2472 5.33619
673 225 3 0.41 9.63361 -1.26568 -1.26445
674 225 3 0.41 9.74689 11.1762 -1.04281
675 225 5 -0.82 10.0561 12.0252 -0.673682
676 226 3 0.41 10.7434 5.72167 17.0374
677 226 3 0.41 9.98014 6.5476 18.2385
678 226 5 -0.82 9.89161 6.09976 17.3476
679 227 3 0.41 9.40841 7.77749 20.755
680 227 3 0.41 10.2871 8.25081 19.538
681 227 5 -0.82 9.66305 7.46633 19.8411
682 228 3 0.41 12.0824 3.08339 -12.4381
683 228 3 0.41 12.3729 1.58743 -12.8084
684 228 5 -0.82 -1.19157 2.39706 -12.4247
685 229 3 0.41 1.55637 1.8036 -21.8035
686 229 3 0.41 0.303693 2.13121 -21.1501
687 229 5 -0.82 0.556616 1.61781 -22.0097
688 230 3 0.41 7.92082 2.8449 -3.45136
689 230 3 0.41 6.90953 3.93659 -4.33682
690 230 5 -0.82 7.26318 2.98086 -4.26923
691 231 3 0.41 3.18462 5.22893 -4.20497
692 231 3 0.41 2.73866 5.45482 -2.59068
693 231 5 -0.82 3.28991 5.80489 -3.37045
694 232 3 0.41 6.93135 11.6565 -8.98881
695 232 3 0.41 6.70159 -1.27818 -10.0601
696 232 5 -0.82 7.45795 12.4209 -9.457
697 233 3 0.41 6.71034 5.92324 -5.23001
698 233 3 0.41 5.49024 4.76299 -5.57627
699 233 5 -0.82 5.88833 5.38574 -4.88127
700 234 3 0.41 6.94025 -1.03146 -1.1491
701 234 3 0.41 5.34914 -0.938032 -1.34183
702 234 5 -0.82 6.17012 12.4076 -1.37713
703 235 3 0.41 4.63305 5.29987 8.39354
704 235 3 0.41 3.70489 4.73001 9.57972
705 235 5 -0.82 4.43754 4.46994 8.98914
706 236 3 0.41 8.48133 3.38409 -0.229771
707 236 3 0.41 7.9298 4.77969 -0.0902633
708 236 5 -0.82 7.99879 3.90657 0.469503
709 237 3 0.41 11.529 9.4115 10.3696
710 237 3 0.41 -1.24691 8.88072 11.2863
711 237 5 -0.82 12.4985 8.97284 10.2967
712 238 3 0.41 -0.235036 4.65981 6.75856
713 238 3 0.41 1.15254 4.33209 6.20593
714 238 5 -0.82 0.719777 4.64955 7.09436
715 239 3 0.41 11.6979 11.1188 1.63564
716 239 3 0.41 -0.722761 11.4362 1.71661
717 239 5 -0.82 -1.40682 10.7163 1.37299
718 240 3 0.41 5.56505 1.42826 1.86216
719 240 3 0.41 4.48641 1.65333 0.545581
720 240 5 -0.82 4.91507 0.993306 1.19676
721 241 3 0.41 6.13944 1.57528 3.4862
722 241 3 0.41 5.92055 -0.0336017 3.75937
723 241 5 -0.82 5.49562 0.920203 3.92876
724 242 3 0.41 -1.26512 5.69335 0.319081
725 242 3 0.41 -0.88002 4.88641 1.52611
726 242 5 -0.82 -0.902956 4.77137 0.521386
727 243 3 0.41 3.45189 2.20759 -18.3133
728 243 3 0.41 1.88425 1.84496 -18.5657
729 243 5 -0.82 2.84375 1.61769 -18.8426
730 244 3 0.41 7.77455 8.30096 21.3966
731 244 3 0.41 8.68166 8.51922 22.8944
732 244 5 -0.82 8.53237 8.82305 21.8941
733 245 3 0.41 2.44996 7.19528 -22.0175
734 245 3 0.41 1.18055 6.20656 -21.5914
735 245 5 -0.82 1.47827 6.97684 -22.1368
736 246 3 0.41 11.5444 9.44421 18.0773
737 246 3 0.41 12.4293 9.53808 19.3715
738 246 5 -0.82 11.475 9.42482 19.0917
739 247 3 0.41 10.8962 9.15773 12.7805
740 247 3 0.41 12.1121 10.0502 13.2508
741 247 5 -0.82 11.8938 9.11299 12.9868
742 248 3 0.41 6.15249 7.98613 10.6931
743 248 3 0.41 7.58369 7.69075 9.93859
744 248 5 -0.82 7.0139 7.43965 10.7543
745 249 3 0.41 2.14062 1.74925 -15.1737
746 249 3 0.41 3.38852 1.21437 -14.3902
747 249 5 -0.82 3.00335 1.20596 -15.3095
748 250 3 0.41 0.632163 6.73761 22.8612
749 250 3 0.41 1.91273 6.95412 22.0667
750 250 5 -0.82 0.911332 7.22803 22.0118
751 251 3 0.41 7.30892 2.61149 10.4499
752 251 3 0.41 8.7697 2.74377 11.0723
753 251 5 -0.82 8.01086 2.04707 10.9895