ITEM: TIMESTEP
70000
ITEM: NUMBER OF ATOMS
1360
ITEM: BOX BOUNDS pp pp pp
-1.5000000000000000e+00 1.2500000000000000e+01
-1.5000000000000000e+00 1.2500000000000000e+01
-2.7500000000000000e+01 2.7500000000000000e+01
ITEM: ATOMS id mol type q x y z
1 1 3 0.41 8.76404 0.805685 3.6245
2 1 3 0.41 7.56023 0.155002 4.57619
3 1 5 -0.82 8.03815 1.02406 4.38097
4 2 3 0.41 -0.810401 7.51973 -15.3367
5 2 3 0.41 -0.337934 9.11 -15.4286
6 2 5 -0.82 -1.01606 8.45339 -15.7149
7 3 3 0.41 9.02623 0.237268 17.1755
8 3 3 0.41 9.92447 -1.0752 16.7626
9 3 5 -0.82 9.96383 -0.0352507 16.8363
10 4 3 0.41 11.5081 10.2203 -20.4456
11 4 3 0.41 10.2954 9.69419 -21.2208
12 4 5 -0.82 10.623 10.5647 -20.851
13 5 3 0.41 -0.634492 5.06684 -14.4752
14 5 3 0.41 0.779025 5.7248 -14.8959
15 5 5 -0.82 -0.17358 5.65835 -15.1598
16 6 3 0.41 6.27694 11.9901 -22.2555
17 6 3 0.41 7.02588 -0.612998 -22.3062
18 6 5 -0.82 6.1505 -1.0457 -22.5229
19 7 3 0.41 1.42267 8.55413 -12.8358
20 7 3 0.41 0.599788 7.25677 -12.5479
21 7 5 -0.82 1.37599 7.60687 -13.1639
22 8 3 0.41 -1.2551 10.6807 15.5415
23 8 3 0.41 -0.309523 9.82582 16.2729
24 8 5 -0.82 -1.3023 9.90392 16.123
25 9 3 0.41 6.47033 -0.319788 -19.9688
26 9 3 0.41 6.88634 0.794715 -18.9302
27 9 5 -0.82 6.30684 0.667567 -19.7806
28 10 3 0.41 3.55911 10.4332 7.56337
29 10 3 0.41 4.09231 9.38324 8.54782
30 10 5 -0.82 4.35113 10.3301 8.22847
31 11 3 0.41 -0.822151 10.8037 -8.71447
32 11 3 0.41 0.319932 10.8065 -10.0239
33 11 5 -0.82 0.115611 10.4494 -9.01959
34 12 3 0.41 11.8296 11.6482 -14.7058
35 12 3 0.41 12.3229 -0.735959 -14.4928
36 12 5 -0.82 12.2188 12.4916 -15.1324
37 13 3 0.41 12.4638 -0.389667 9.08748
38 13 3 0.41 -1.05418 0.764452 8.10402
39 13 5 -0.82 -0.90148 0.390655 9.03415
40 14 3 0.41 10.7298 4.91519 -19.2021
41 14 3 0.41 9.58877 5.8671 -19.6014
42 14 5 -0.82 10.5732 5.72316 -19.779
43 15 3 0.41 5.94482 4.55538 0.977035
44 15 3 0.41 7.43446 4.65938 0.394303
45 15 5 -0.82 6.84601 4.98354 1.1395
46 16 3 0.41 3.38874 2.74607 10.9272
47 16 3 0.41 3.40412 2.76583 9.23276
48 16 5 -0.82 2.78518 2.92684 10.0803
49 17 3 0.41 2.51244 10.564 22.2607
50 17 3 0.41 3.86894 10.5057 23.0367
51 17 5 -0.82 3.49017 10.4356 22.1012
52 18 3 0.41 3.82386 -0.697301 -19.1491
53 18 3 0.41 4.77087 0.542384 -19.554
54 18 5 -0.82 3.85593 0.318767 -19.0754
55 19 3 0.41 5.89823 9.96725 3.38839
56 19 3 0.41 6.28283 8.70203 4.39893
57 19 5 -0.82 5.95398 9.6823 4.369
58 20 3 0.41 -0.0459006 8.19431 -17.2017
59 20 3 0.41 1.36634 8.80021 -17.852
60 20 5 -0.82 0.356165 8.72059 -17.9734
61 21 3 0.41 7.72795 1.52331 18.3247
62 21 3 0.41 8.29421 2.60752 17.3713
63 21 5 -0.82 7.72255 1.77573 17.3489
64 22 3 0.41 6.24579 -0.703588 -17.1975
65 22 3 0.41 4.71957 -0.556142 -17.3903
66 22 5 -0.82 5.38189 -1.28325 -17.2794
67 23 3 0.41 8.36381 0.277467 -16.8005
68 23 3 0.41 8.15033 -1.10005 -17.6727
69 23 5 -0.82 7.79839 -0.0981264 -17.5437
70 24 3 0.41 -0.339857 4.31995 -20.2774
71 24 3 0.41 -0.845542 5.52893 -19.3216
72 24 5 -0.82 -0.648029 5.24856 -20.3268
73 25 3 0.41 1.89071 9.79594 -15.0493
74 25 3 0.41 0.731367 10.3564 -14.1252
75 25 5 -0.82 0.91122 9.99127 -15.0871
76 26 3 0.41 7.63692 10.0081 -17.3968
77 26 3 0.41 7.98443 11.2943 -16.4569
78 26 5 -0.82 7.82284 11.0309 -17.3738
79 27 3 0.41 12.0095 9.34341 -10.0583
80 27 3 0.41 10.7388 9.15822 -11.0724
81 27 5 -0.82 11.6541 8.76415 -10.8228
82 28 3 0.41 10.4877 -0.698853 -12.6258
83 28 3 0.41 9.06318 -0.0532968 -12.3587
84 28 5 -0.82 9.53144 -0.652294 -13.0444
85 29 3 0.41 5.1465 8.42172 22.9915
86 29 3 0.41 5.87303 7.26357 22.1322
87 29 5 -0.82 5.14398 7.99965 22.0649
88 30 3 0.41 5.18135 -0.333027 6.35033
89 30 3 0.41 6.4212 0.575462 7.04188
90 30 5 -0.82 5.52598 0.651661 6.43207
91 31 3 0.41 5.11167 6.20479 -15.8921
92 31 3 0.41 5.69229 5.97208 -17.2798
93 31 5 -0.82 4.91482 6.43389 -16.817
94 32 3 0.41 12.3866 11.4676 -16.6694
95 32 3 0.41 -1.33359 9.96615 -16.8253
96 32 5 -0.82 12.3072 10.779 -17.3933
97 33 3 0.41 2.93423 8.46276 -11.0267
98 33 3 0.41 3.1708 9.32224 -12.3659
99 33 5 -0.82 3.70659 8.83582 -11.6247
100 34 3 0.41 12.221 7.2536 8.55284
101 34 3 0.41 11.5322 8.70508 8.44851
102 34 5 -0.82 11.3851 7.70621 8.34597
103 35 3 0.41 2.42375 9.82513 16.6239
104 35 3 0.41 1.34479 10.8814 16.3647
105 35 5 -0.82 1.54498 9.92775 16.1059
106 36 3 0.41 8.10771 -0.844892 -6.81467
107 36 3 0.41 9.71411 -1.11338 -6.94628
108 36 5 -0.82 8.82219 12.4576 -6.64027
109 37 3 0.41 10.718 6.75674 22.9238
110 37 3 0.41 11.1003 7.56689 21.5408
111 37 5 -0.82 10.353 7.05089 21.9985
112 38 3 0.41 8.58502 5.05147 -15.5314
113 38 3 0.41 8.49963 4.10465 -14.2313
114 38 5 -0.82 7.97273 4.77803 -14.7995
115 39 3 0.41 3.95561 1.82848 -18.0825
116 39 3 0.41 3.84455 3.22666 -17.3161
117 39 5 -0.82 4.25768 2.78713 -18.1095
118 40 3 0.41 11.461 2.8752 -21.9841
119 40 3 0.41 11.1888 1.55253 -21.225
120 40 5 -0.82 11.636 1.89593 -22.0815
121 41 3 0.41 3.77338 9.21503 -16.9097
122 41 3 0.41 3.00287 7.89313 -16.3176
123 41 5 -0.82 2.80809 8.74717 -16.7537
124 42 3 0.41 8.5846 5.35381 7.3429
125 42 3 0.41 9.63499 4.9832 8.43849
126 42 5 -0.82 9.45417 4.82068 7.45686
127 43 3 0.41 7.71832 -0.935389 19.4747
128 43 3 0.41 7.59041 11.8747 18.4929
129 43 5 -0.82 8.20936 12.1788 19.2306
130 44 3 0.41 7.72825 9.46699 -22.0757
131 44 3 0.41 7.63888 10.8838 -21.2818
132 44 5 -0.82 7.71823 10.4651 -22.2026
133 45 3 0.41 11.6878 5.64191 3.84184
134 45 3 0.41 11.686 7.13516 4.445
135 45 5 -0.82 11.4563 6.60756 3.57875
136 46 3 0.41 3.13763 12.267 21.6985
137 46 3 0.41 4.08326 -0.48629 21.8303
138 46 5 -0.82 3.09046 -0.702431 21.7181
139 47 3 0.41 5.6514 8.99439 7.72698
140 47 3 0.41 5.59373 9.14268 6.15981
141 47 5 -0.82 6.09203 8.6843 6.88215
142 48 3 0.41 1.4795 10.3535 10.8454
143 48 3 0.41 0.0914003 9.99361 10.1879
144 48 5 -0.82 0.928617 9.55999 10.6001
145 49 3 0.41 10.4654 5.71346 -0.231732
146 49 3 0.41 10.1936 7.2471 -0.427002
147 49 5 -0.82 9.84445 6.35168 -0.747125
148 50 3 0.41 -0.822009 5.46621 15.585
149 50 3 0.41 12.0145 4.85453 16.5926
150 50 5 -0.82 12.4268 5.75362 16.203
151 51 3 0.41 8.71721 2.84572 0.591621
152 51 3 0.41 8.63929 2.63445 2.2151
153 51 5 -0.82 8.48399 2.19236 1.314
154 52 3 0.41 11.0503 8.86147 -14.8893
155 52 3 0.41 9.55682 9.14386 -14.7601
156 52 5 -0.82 10.1547 8.55974 -15.3172
157 53 3 0.41 7.6655 9.42494 17.3354
158 53 3 0.41 6.61344 9.61637 18.4642
159 53 5 -0.82 6.85223 9.93851 17.5059
160 54 3 0.41 2.27057 8.49642 11.764
161 54 3 0.41 3.0942 8.03458 10.5297
162 54 5 -0.82 3.16644 8.20433 11.5121
163 55 3 0.41 4.54212 5.94192 -2.35883
164 55 3 0.41 3.86855 4.56089 -2.90843
165 55 5 -0.82 4.75374 5.05234 -2.85538
166 56 3 0.41 11.8367 4.80653 0.963713
167 56 3 0.41 11.7118 3.34041 0.324072
168 56 5 -0.82 11.1236 4.08738 0.694984
169 57 3 0.41 -0.943106 8.74513 -19.442
170 57 3 0.41 11.9045 7.61696 -19.5624
171 57 5 -0.82 12.3042 8.38801 -20.0657
172 58 3 0.41 3.33523 1.98119 -15.7532
173 58 3 0.41 3.78824 0.62997 -15.0932
174 58 5 -0.82 3.59637 1.02323 -16.0094
175 59 3 0.41 2.57053 9.79207 -5.79078
176 59 3 0.41 2.54798 11.3397 -5.17848
177 59 5 -0.82 3.13454 10.6205 -5.65745
178 60 3 0.41 10.0195 6.76649 -2.62037
179 60 3 0.41 9.68831 8.2836 -2.78917
180 60 5 -0.82 10.0565 7.51862 -3.29459
181 61 3 0.41 3.91478 2.99423 16.8369
182 61 3 0.41 4.47306 4.50696 16.8315
183 61 5 -0.82 3.60193 4.01425 16.8608
184 62 3 0.41 7.16579 0.942866 -8.68093
185 62 3 0.41 6.53866 -0.487374 -9.11721
186 62 5 -0.82 7.34356 0.144937 -9.26751
187 63 3 0.41 4.09734 7.6188 19.3378
188 63 3 0.41 3.33682 6.13399 19.2556
189 63 5 -0.82 4.1661 6.64726 19.1106
190 64 3 0.41 0.575863 5.99629 5.75436
191 64 3 0.41 1.91374 6.36218 5.1425
192 64 5 -0.82 0.972614 6.114 4.81387
193 65 3 0.41 -0.460349 7.18976 -0.99806
194 65 3 0.41 12.3138 6.6106 -1.9256
195 65 5 -0.82 -1.28856 7.44253 -1.49473
196 66 3 0.41 1.46243 12.2035 1.0888
197 66 3 0.41 3.01038 11.9974 0.679479
198 66 5 -0.82 2.39042 11.8354 1.40119
199 67 3 0.41 2.58329 9.07922 19.3766
200 67 3 0.41 3.61588 9.73527 20.4895
201 67 5 -0.82 3.58446 9.27908 19.5839
202 68 3 0.41 -1.48698 -0.0298252 19.6752
203 68 3 0.41 -1.01919 -0.598945 18.4848
204 68 5 -0.82 -0.663541 -0.495723 19.3535
205 69 3 0.41 8.72014 11.6371 -9.68822
206 69 3 0.41 8.44634 -0.8996 -9.87461
207 69 5 -0.82 9.16229 12.4126 -10.1338
208 70 3 0.41 2.66332 1.65353 -5.53436
209 70 3 0.41 3.77131 2.64562 -5.31335
210 70 5 -0.82 2.90452 2.56252 -5.79591
211 71 3 0.41 1.75691 4.7439 7.36236
212 71 3 0.41 2.02868 3.14109 6.94367
213 71 5 -0.82 2.01233 4.11205 6.60416
214 72 3 0.41 1.32489 5.81121 10.0486
215 72 3 0.41 0.876328 6.40481 11.5381
216 72 5 -0.82 1.4203 5.65214 11.0582
217 73 3 0.41 5.72041 11.892 -7.8112
218 73 3 0.41 4.34938 12.4375 -8.35685
219 73 5 -0.82 5.36424 12.4765 -8.55378
220 74 3 0.41 7.09854 6.31324 8.31472
221 74 3 0.41 6.84457 7.18594 6.91895
222 74 5 -0.82 7.33968 6.37779 7.34726
223 75 3 0.41 10.2548 5.5885 -10.4642
224 75 3 0.41 11.2729 5.19949 -9.18508
225 75 5 -0.82 10.5961 4.83475 -9.83927
226 76 3 0.41 4.60453 -0.531982 -10.0383
227 76 3 0.41 3.06328 -0.539015 -10.7012
228 76 5 -0.82 3.7481 -0.00996941 -10.1725
229 77 3 0.41 4.10128 -0.445088 9.26762
230 77 3 0.41 5.55894 -1.22842 9.72498
231 77 5 -0.82 4.78289 -0.620777 10.0187
232 78 3 0.41 9.31054 6.18408 -17.3113
233 78 3 0.41 10.0505 7.2465 -16.4413
234 78 5 -0.82 10.019 6.26491 -16.6365
235 79 3 0.41 0.755584 -1.21403 8.77964
236 79 3 0.41 1.58982 -1.07084 10.1206
237 79 5 -0.82 1.20782 12.2435 9.45904
238 80 3 0.41 4.79108 2.65135 -11.7751
239 80 3 0.41 4.4111 1.33986 -12.6126
240 80 5 -0.82 5.04504 2.10529 -12.5985
241 81 3 0.41 0.447917 -1.23167 3.34983
242 81 3 0.41 0.443789 -0.330104 1.97921
243 81 5 -0.82 0.252521 -0.331084 2.95682
244 82 3 0.41 10.6299 5.25403 9.8653
245 82 3 0.41 9.4918 4.64404 10.868
246 82 5 -0.82 9.61872 5.08127 9.93485
247 83 3 0.41 9.13721 12.3159 6.81347
248 83 3 0.41 8.75659 11.2189 5.73982
249 83 5 -0.82 8.90703 11.3602 6.71837
250 84 3 0.41 2.45564 0.154814 11.5863
251 84 3 0.41 2.28149 1.30849 10.4384
252 84 5 -0.82 1.88712 0.403184 10.7952
253 85 3 0.41 7.30109 6.20218 23.3157
254 85 3 0.41 6.45756 5.60166 21.9976
255 85 5 -0.82 7.25338 6.19245 22.2956
256 86 3 0.41 11.9838 2.6386 -11.3131
257 86 3 0.41 10.666 3.72727 -11.2868
258 86 5 -0.82 11.1542 2.93891 -11.7875
259 87 3 0.41 3.33202 3.15508 5.86611
260 87 3 0.41 3.48791 2.91737 4.3077
261 87 5 -0.82 4.03371 2.94135 5.16543
262 88 3 0.41 9.1594 8.44672 22.1199
263 88 3 0.41 8.04559 8.79715 23.1676
264 88 5 -0.82 8.29935 8.95187 22.1881
265 89 3 0.41 7.3378 8.36992 -6.56283
266 89 3 0.41 5.74219 8.35813 -7.00479
267 89 5 -0.82 6.6672 8.78424 -7.20542
268 90 3 0.41 12.2652 3.77003 -12.9513
269 90 3 0.41 -0.592609 2.84708 -13.5931
270 90 5 -0.82 -0.912931 3.8361 -13.4982
271 91 3 0.41 3.69793 0.520651 4.08916
272 91 3 0.41 2.23909 0.862006 3.83922
273 91 5 -0.82 2.76267 0.359863 4.51656
274 92 3 0.41 8.83179 2.06806 5.29271
275 92 3 0.41 9.45088 3.13771 6.44695
276 92 5 -0.82 9.66853 2.30489 5.89735
277 93 3 0.41 9.94333 9.59771 20.5317
278 93 3 0.41 8.92894 10.6704 19.8857
279 93 5 -0.82 9.4541 9.82677 19.6735
280 94 3 0.41 -0.690953 4.68178 -1.73823
281 94 3 0.41 -0.0522741 4.12118 -0.347766
282 94 5 -0.82 0.0779058 4.85801 -1.07091
283 95 3 0.41 4.08052 5.22918 14.2437
284 95 3 0.41 3.10432 5.27106 12.9987
285 95 5 -0.82 3.07554 5.36286 13.9791
286 96 3 0.41 3.88624 10.7068 9.86385
287 96 3 0.41 4.14773 11.9939 10.7768
288 96 5 -0.82 3.82424 10.9977 10.8164
289 97 3 0.41 10.652 3.4561 21.7849
290 97 3 0.41 10.1347 4.64904 22.8295
291 97 5 -0.82 10.1536 4.37088 21.8577
292 98 3 0.41 9.9135 11.8504 -19.8998
293 98 3 0.41 10.025 -1.1449 -18.6192
294 98 5 -0.82 9.5457 -1.24157 -19.5102
295 99 3 0.41 6.41385 9.57993 14.4458
296 99 3 0.41 5.63827 8.3668 14.5193
297 99 5 -0.82 6.19023 8.84959 13.8336
298 100 3 0.41 2.75241 11.9484 3.12077
299 100 3 0.41 2.84766 -1.19157 4.40523
300 100 5 -0.82 2.82364 11.8192 4.10972
301 101 3 0.41 9.55407 11.2164 -1.55774
302 101 3 0.41 9.74973 -1.47345 -2.47203
303 101 5 -0.82 9.93756 12.1524 -1.5857
304 102 3 0.41 4.48637 -0.753473 -22.3814
305 102 3 0.41 3.60407 -1.32673 -21.1012
306 102 5 -0.82 3.54862 -0.72268 -21.9831
307 103 3 0.41 1.51653 10.0767 6.60295
308 103 3 0.41 2.59717 10.6458 5.45819
309 103 5 -0.82 2.48804 10.0927 6.27636
310 104 3 0.41 10.7695 -0.89183 -0.46533
311 104 3 0.41 11.4844 0.571116 -0.505235
312 104 5 -0.82 11.5535 -0.384002 -0.0378559
313 105 3 0.41 -1.48695 2.36292 14.6201
314 105 3 0.41 -0.303395 2.67189 15.639
315 105 5 -0.82 -0.642576 1.9642 15.0034
316 106 3 0.41 5.49635 4.98552 -6.06781
317 106 3 0.41 3.81238 4.91563 -5.73213
318 106 5 -0.82 4.52142 4.90975 -6.45717
319 107 3 0.41 11.7193 0.873412 1.64676
320 107 3 0.41 11.7496 1.29625 3.16352
321 107 5 -0.82 12.022 1.58543 2.22269
322 108 3 0.41 11.6771 -0.32767 -18.6809
323 108 3 0.41 -0.910895 -0.471902 -19.5752
324 108 5 -0.82 12.3134 0.186968 -19.3063
325 109 3 0.41 9.07457 0.650914 -21.6727
326 109 3 0.41 8.9414 -0.858538 -21.5545
327 109 5 -0.82 8.47131 -0.0886974 -21.9914
328 110 3 0.41 2.42988 12.2099 -2.16898
329 110 3 0.41 2.87794 -0.35043 -1.71589
330 110 5 -0.82 2.22975 -1.07361 -1.53058
331 111 3 0.41 0.794298 3.0616 -3.17448
332 111 3 0.41 -0.164518 4.12132 -3.87961
333 111 5 -0.82 0.7716 3.78109 -3.86503
334 112 3 0.41 10.0089 2.76662 -13.3274
335 112 3 0.41 8.64572 2.01086 -12.99
336 112 5 -0.82 9.0764 2.69619 -13.6783
337 113 3 0.41 2.05357 2.18325 19.5558
338 113 3 0.41 2.90026 0.786139 19.4643
339 113 5 -0.82 2.0062 1.1425 19.5648
340 114 3 0.41 3.01492 6.92948 -19.1123
341 114 3 0.41 4.51132 6.89392 -18.4403
342 114 5 -0.82 3.93707 7.16953 -19.2765
343 115 3 0.41 -1.49361 2.24763 -4.82808
344 115 3 0.41 12.3755 0.833891 -4.28525
345 115 5 -0.82 -0.991141 1.36077 -4.89384
346 116 3 0.41 7.33371 -0.00845736 17.1454
347 116 3 0.41 5.77912 -0.454679 17.2436
348 116 5 -0.82 6.70588 -0.796402 17.0571
349 117 3 0.41 11.8683 2.97018 -17.6763
350 117 3 0.41 11.7509 2.78714 -19.2599
351 117 5 -0.82 11.4459 3.32712 -18.4989
352 118 3 0.41 1.14254 9.37662 0.112948
353 118 3 0.41 2.62212 9.77651 -0.282146
354 118 5 -0.82 1.71281 9.66231 -0.679909
355 119 3 0.41 9.49765 10.5434 -6.08872
356 119 3 0.41 10.5894 9.30505 -5.98842
357 119 5 -0.82 9.95936 9.80796 -6.57224
358 120 3 0.41 8.27113 3.21597 15.3075
359 120 3 0.41 7.65493 2.0036 14.5305
360 120 5 -0.82 8.06251 2.89535 14.4049
361 121 3 0.41 6.4828 6.64194 -11.0781
362 121 3 0.41 4.93387 6.65625 -10.8686
363 121 5 -0.82 5.63121 6.48542 -11.6006
364 122 3 0.41 9.19713 8.08318 12.9207
365 122 3 0.41 8.19414 8.8352 13.7917
366 122 5 -0.82 9.03526 9.02373 13.3001
367 123 3 0.41 0.683949 -0.887396 -0.662012
368 123 3 0.41 -0.636584 -0.36175 0.0753399
369 123 5 -0.82 0.27999 -0.847817 0.275635
370 124 3 0.41 7.75505 11.2755 0.928519
371 124 3 0.41 8.36856 9.87603 0.597456
372 124 5 -0.82 8.68723 10.7919 0.835546
373 125 3 0.41 3.18592 0.853136 -21.6377
374 125 3 0.41 2.78555 2.20594 -21.0241
375 125 5 -0.82 3.02483 1.81055 -21.9197
376 126 3 0.41 0.634147 2.90514 -11.1408
377 126 3 0.41 0.0829539 1.83447 -10.1101
378 126 5 -0.82 -0.241288 2.58677 -10.7126
379 127 3 0.41 -0.299374 8.00239 11.1073
380 127 3 0.41 12.4704 7.69745 12.1458
381 127 5 -0.82 -0.911117 7.26181 11.4686
382 128 3 0.41 5.744 6.17823 10.0888
383 128 3 0.41 7.27903 6.07654 10.4624
384 128 5 -0.82 6.6325 6.61182 9.85192
385 129 3 0.41 9.89826 6.78009 10.6941
386 129 3 0.41 11.0415 7.87152 10.2694
387 129 5 -0.82 10.1753 7.75744 10.7966
388 130 3 0.41 -0.0134356 -0.815704 -6.3414
389 130 3 0.41 -0.121272 0.749894 -6.31345
390 130 5 -0.82 0.212937 0.00891541 -6.94423
391 131 3 0.41 3.19206 11.0323 -19.9842
392 131 3 0.41 4.76029 11.4348 -19.7421
393 131 5 -0.82 3.87008 11.7888 -19.8876
394 132 3 0.41 8.22574 0.785541 -1.67586
395 132 3 0.41 7.97336 1.80374 -2.96714
396 132 5 -0.82 8.58085 1.6047 -2.14401
397 133 3 0.41 11.8574 3.99962 5.47893
398 133 3 0.41 -1.14108 3.29341 4.5031
399 133 5 -0.82 12.1236 3.99677 4.5011
400 134 3 0.41 4.641 8.02134 1.32613
401 134 3 0.41 4.57032 6.79987 2.51927
402 134 5 -0.82 5.19271 7.40346 1.9489
403 135 3 0.41 3.48956 5.65495 -14.7454
404 135 3 0.41 2.42003 6.81068 -14.585
405 135 5 -0.82 2.50159 5.87036 -14.917
406 136 3 0.41 11.9115 0.363239 12.3929
407 136 3 0.41 10.9204 -0.303923 11.3423
408 136 5 -0.82 11.0496 -0.188787 12.356
409 137 3 0.41 11.7318 11.2913 1.58314
410 137 3 0.41 12.1461 11.443 0.0710946
411 137 5 -0.82 12.0429 10.7682 0.779272
412 138 3 0.41 -0.717145 10.0254 7.54354
413 138 3 0.41 0.0597436 8.66679 7.18453
414 138 5 -0.82 -0.0598283 9.60591 6.87093
415 139 3 0.41 4.11975 3.70233 21.9297
416 139 3 0.41 3.64168 5.12486 21.6422
417 139 5 -0.82 4.51581 4.59807 21.7094
418 140 3 0.41 3.55564 10.3298 -8.50799
419 140 3 0.41 4.22081 9.31668 -7.50704
420 140 5 -0.82 3.96659 9.42728 -8.48635
421 141 3 0.41 5.11217 10.2288 -21.4264
422 141 3 0.41 3.94397 9.55173 -22.2295
423 141 5 -0.82 4.48495 10.4407 -22.1803
424 142 3 0.41 4.78599 7.72925 -13.3447
425 142 3 0.41 4.47284 8.46194 -14.785
426 142 5 -0.82 4.54762 7.57392 -14.3189
427 143 3 0.41 9.81646 11.3061 15.4457
428 143 3 0.41 9.65137 10.5105 14.0522
429 143 5 -0.82 10.1526 11.2735 14.5068
430 144 3 0.41 5.71565 9.60089 -16.801
431 144 3 0.41 5.22073 11.0548 -17.2645
432 144 5 -0.82 4.88849 10.1193 -17.0912
433 145 3 0.41 -1.02548 11.116 -18.9655
434 145 3 0.41 0.189536 11.7924 -19.9109
435 145 5 -0.82 -0.72501 11.3089 -19.926
436 146 3 0.41 0.447593 1.63645 -17.031
437 146 3 0.41 2.07373 1.07421 -17.0411
438 146 5 -0.82 1.32992 1.57988 -17.5767
439 147 3 0.41 -0.183071 8.68258 2.42894
440 147 3 0.41 -0.782058 9.45563 1.09484
441 147 5 -0.82 0.0264672 8.99013 1.46667
442 148 3 0.41 4.6969 0.783517 18.7561
443 148 3 0.41 4.61299 -0.869732 19.0296
444 148 5 -0.82 4.33214 -0.101858 18.3997
445 149 3 0.41 3.68653 1.8833 -2.89088
446 149 3 0.41 2.92676 2.74227 -1.71105
447 149 5 -0.82 3.11276 1.75378 -2.01191
448 150 3 0.41 4.81095 3.85151 -14.39
449 150 3 0.41 6.06708 4.5469 -15.1409
450 150 5 -0.82 5.2626 4.70707 -14.5409
451 151 3 0.41 9.79277 1.34406 14.5206
452 151 3 0.41 11.1232 0.883429 13.737
453 151 5 -0.82 10.7725 1.61379 14.35
454 152 3 0.41 4.46659 6.34321 5.46158
455 152 3 0.41 4.64247 4.75482 5.36448
456 152 5 -0.82 5.16642 5.60886 5.56662
457 153 3 0.41 -1.44205 -1.1767 15.0369
458 153 3 0.41 -0.246431 12.3331 14.1794
459 153 5 -0.82 -1.18912 12.1169 14.3707
460 154 3 0.41 4.92679 4.91606 -21.4078
461 154 3 0.41 3.77915 5.52483 -22.3515
462 154 5 -0.82 4.77982 5.37562 -22.3319
463 155 3 0.41 -0.554375 6.83521 17.2113
464 155 3 0.41 0.170257 6.55262 18.5606
465 155 5 -0.82 0.214784 7.13668 17.7588
466 156 3 0.41 -0.953653 7.05205 1.15466
467 156 3 0.41 12.2244 6.21249 2.24215
468 156 5 -0.82 -1.17543 6.1118 1.40435
469 157 3 0.41 8.53325 11.6612 22.0546
470 157 3 0.41 9.13713 -0.864602 22.1109
471 157 5 -0.82 9.38963 12.1595 21.933
472 158 3 0.41 10.8618 11.4095 -9.07169
473 158 3 0.41 11.0306 10.3452 -7.83907
474 158 5 -0.82 11.5047 10.8256 -8.59855
475 159 3 0.41 5.83485 9.51902 -11.1103
476 159 3 0.41 6.2458 10.9127 -10.3419
477 159 5 -0.82 6.29698 10.4488 -11.23
478 160 3 0.41 5.65731 4.97666 11.6135
479 160 3 0.41 6.25168 3.54053 12.1408
480 160 5 -0.82 6.52562 4.50708 11.9188
481 161 3 0.41 -0.402151 12.2621 -2.6319
482 161 3 0.41 12.0261 -1.26904 -2.85583
483 161 5 -0.82 -1.06018 -0.939918 -2.64622
484 162 3 0.41 9.17329 6.56925 -7.7342
485 162 3 0.41 9.35653 5.11592 -6.91137
486 162 5 -0.82 8.70943 5.77647 -7.3793
487 163 3 0.41 5.51751 12.4929 -15.4582
488 163 3 0.41 6.63223 -1.21261 -14.4351
489 163 5 -0.82 5.93747 12.0941 -14.6753
490 164 3 0.41 0.85456 10.4326 -1.86816
491 164 3 0.41 -0.674629 10.2311 -2.66678
492 164 5 -0.82 0.315865 10.662 -2.77169
493 165 3 0.41 6.54721 5.12861 17.5925
494 165 3 0.41 5.44446 5.64794 18.5742
495 165 5 -0.82 5.96416 4.81932 18.398
496 166 3 0.41 9.85241 7.94187 17.1294
497 166 3 0.41 9.77617 7.77258 15.6381
498 166 5 -0.82 9.15217 8.02832 16.3734
499 167 3 0.41 8.59886 6.96263 -11.5232
500 167 3 0.41 8.4656 5.40867 -11.8953
501 167 5 -0.82 9.08878 6.20078 -12.019
502 168 3 0.41 2.58886 -1.28317 -8.29754
503 168 3 0.41 1.71337 11.4377 -8.26371
504 168 5 -0.82 2.53286 11.8059 -8.67456
505 169 3 0.41 0.761876 7.70017 4.30582
506 169 3 0.41 -0.203599 8.58695 5.02895
507 169 5 -0.82 0.169719 8.4983 4.09537
508 170 3 0.41 7.24854 0.629981 -11.3478
509 170 3 0.41 8.35399 1.79483 -10.9279
510 170 5 -0.82 8.04773 1.18659 -11.6913
511 171 3 0.41 0.372982 0.368931 12.794
512 171 3 0.41 0.239592 0.785173 14.2963
513 171 5 -0.82 0.77103 0.131914 13.703
514 172 3 0.41 11.7974 10.4761 20.5354
515 172 3 0.41 12.2475 12.0068 19.9272
516 172 5 -0.82 12.1914 10.9788 19.7457
517 173 3 0.41 -1.322 2.65826 6.93845
518 173 3 0.41 -0.757242 1.60103 5.83067
519 173 5 -0.82 -1.19631 1.64875 6.77217
520 174 3 0.41 9.99958 3.2396 19.6498
521 174 3 0.41 10.5998 2.8581 18.2076
522 174 5 -0.82 10.354 2.43588 19.1487
523 175 3 0.41 10.7597 1.25371 5.01988
524 175 3 0.41 11.8812 0.244083 5.21605
525 175 5 -0.82 11.4619 0.778109 4.49872
526 176 3 0.41 7.981 6.18607 -1.65909
527 176 3 0.41 6.3773 6.47152 -1.67387
528 176 5 -0.82 7.19639 6.18231 -2.26504
529 177 3 0.41 12.4176 -1.21861 3.04084
530 177 3 0.41 10.7611 -1.213 2.82009
531 177 5 -0.82 11.5783 12.2165 3.01443
532 178 3 0.41 9.8115 0.424797 -19.7978
533 178 3 0.41 9.22875 1.86235 -19.2263
534 178 5 -0.82 9.72605 1.44036 -20.0097
535 179 3 0.41 0.21591 2.72629 -21.223
536 179 3 0.41 1.1555 2.20395 -22.4273
537 179 5 -0.82 0.418271 2.89933 -22.2154
538 180 3 0.41 3.9159 4.62442 2.39532
539 180 3 0.41 3.04167 5.11295 3.58245
540 180 5 -0.82 3.58372 5.48418 2.78839
541 181 3 0.41 12.3225 0.358185 -13.0245
542 181 3 0.41 11.4712 1.7079 -12.9442
543 181 5 -0.82 12.0154 1.14245 -13.624
544 182 3 0.41 -0.0778213 -0.0241444 -21.0037
545 182 3 0.41 -0.937413 0.851411 -22.1939
546 182 5 -0.82 -0.336984 -8.65512e-05 -21.9784
547 183 3 0.41 9.2493 12.2588 -14.228
548 183 3 0.41 8.62041 10.8384 -14.5334
549 183 5 -0.82 9.33238 11.4741 -14.8948
550 184 3 0.41 5.75161 11.2796 5.14723
551 184 3 0.41 4.82056 11.2153 6.38147
552 184 5 -0.82 5.39127 11.8272 5.85688
553 185 3 0.41 6.18662 7.31104 -14.0679
554 185 3 0.41 7.58079 6.4847 -13.805
555 185 5 -0.82 7.24863 7.39415 -13.9649
556 186 3 0.41 4.06379 3.90641 -0.0913122
557 186 3 0.41 4.86433 2.76942 0.928096
558 186 5 -0.82 4.52795 3.75633 0.821468
559 187 3 0.41 1.70397 7.55895 1.04709
560 187 3 0.41 2.6168 6.31466 1.49022
561 187 5 -0.82 2.11485 6.69653 0.709306
562 188 3 0.41 -0.0130805 10.289 -22.5512
563 188 3 0.41 -1.0854 10.1939 -21.434
564 188 5 -0.82 -0.806997 9.74501 -22.281
565 189 3 0.41 1.58028 -0.60246 16.3054
566 189 3 0.41 0.184139 -1.18611 16.6449
567 189 5 -0.82 1.11351 -1.4963 16.4809
568 190 3 0.41 1.67538 1.21065 17.0384
569 190 3 0.41 3.17022 0.654002 16.9438
570 190 5 -0.82 2.34741 0.858271 16.4064
571 191 3 0.41 2.24402 11.2397 12.8277
572 191 3 0.41 1.37718 12.4818 13.2126
573 191 5 -0.82 1.29423 11.6012 12.762
574 192 3 0.41 10.4356 8.82846 18.7771
575 192 3 0.41 11.8116 8.07668 18.8878
576 192 5 -0.82 10.9876 8.09699 18.2963
577 193 3 0.41 6.41186 11.6002 13.5506
578 193 3 0.41 6.46304 12.0766 12.0103
579 193 5 -0.82 5.78267 11.737 12.7423
580 194 3 0.41 5.36939 3.30598 19.271
581 194 3 0.41 3.96451 2.9114 19.7762
582 194 5 -0.82 4.80687 2.50147 19.3913
583 195 3 0.41 5.88039 2.63135 8.8801
584 195 3 0.41 5.18673 1.7708 7.77158
585 195 5 -0.82 5.01565 2.57274 8.368
586 196 3 0.41 8.65299 4.7619 -21.9498
587 196 3 0.41 8.20943 5.95026 -21.2172
588 196 5 -0.82 8.82562 5.77733 -21.9462
589 197 3 0.41 11.4321 11.0864 5.86243
590 197 3 0.41 11.2711 10.925 4.3014
591 197 5 -0.82 11.3203 10.3974 5.16107
592 198 3 0.41 0.882159 0.956093 -14.1674
593 198 3 0.41 1.4761 1.92873 -13.0578
594 198 5 -0.82 0.866872 1.94292 -13.8775
595 199 3 0.41 3.99299 10.8809 -13.0601
596 199 3 0.41 4.7704 10.5612 -14.5464
597 199 5 -0.82 4.00484 10.2952 -13.9093
598 200 3 0.41 11.0166 9.49229 0.405619
599 200 3 0.41 10.1361 8.60904 1.41767
600 200 5 -0.82 10.5372 8.59657 0.468219
601 201 3 0.41 8.46812 -0.170847 11.1647
602 201 3 0.41 8.6891 12.2646 11.5151
603 201 5 -0.82 8.00208 -0.96637 11.6277
604 202 3 0.41 9.50849 11.4632 -11.6203
605 202 3 0.41 8.91747 10.2201 -12.4897
606 202 5 -0.82 9.75191 10.5616 -12.0336
607 203 3 0.41 3.02143 -1.34979 6.83072
608 203 3 0.41 2.56208 12.4993 8.42318
609 203 5 -0.82 3.17512 -1.00399 7.74641
610 204 3 0.41 1.67053 -1.16911 -18.9063
611 204 3 0.41 1.62367 0.173703 -19.6655
612 204 5 -0.82 1.16823 -0.706085 -19.6285
613 205 3 0.41 1.20713 3.49411 -6.07544
614 205 3 0.41 -0.168968 4.30678 -6.30103
615 205 5 -0.82 0.591407 3.83219 -6.82481
616 206 3 0.41 6.36123 5.55328 15.4044
617 206 3 0.41 6.27932 4.72544 14.0214
618 206 5 -0.82 5.68629 5.01577 14.8246
619 207 3 0.41 5.04578 0.588217 -1.86647
620 207 3 0.41 5.30326 -1.0583 -1.69216
621 207 5 -0.82 5.26649 -0.162028 -1.21873
622 208 3 0.41 0.636144 9.86971 13.2044
623 208 3 0.41 0.805659 9.13708 14.6435
624 208 5 -0.82 0.541936 8.99335 13.6778
625 209 3 0.41 2.38806 6.11718 -12.4649
626 209 3 0.41 3.81034 5.6477 -11.8929
627 209 5 -0.82 2.80572 5.557 -11.7206
628 210 3 0.41 7.32065 5.72648 12.6304
629 210 3 0.41 7.14689 7.3641 13.0332
630 210 5 -0.82 7.7415 6.55789 13.1085
631 211 3 0.41 10.5983 -0.314054 7.0315
632 211 3 0.41 9.76734 1.11027 6.99475
633 211 5 -0.82 9.91565 0.267202 7.51498
634 212 3 0.41 7.84731 11.9353 15.0979
635 212 3 0.41 7.18347 11.0994 16.1547
636 212 5 -0.82 7.16797 11.1801 15.1435
637 213 3 0.41 4.99974 0.361264 -3.90413
638 213 3 0.41 4.9563 -1.34452 -3.74904
639 213 5 -0.82 4.38949 -0.488786 -3.98031
640 214 3 0.41 2.08177 5.46743 -17.2686
641 214 3 0.41 0.835654 6.05794 -18.1703
642 214 5 -0.82 1.85451 5.82793 -18.1817
643 215 3 0.41 -1.38014 8.29312 -4.94924
644 215 3 0.41 11.1147 8.01017 -4.4494
645 215 5 -0.82 11.6509 8.4614 -5.15659
646 216 3 0.41 3.60615 6.94826 8.39504
647 216 3 0.41 2.38466 7.82604 8.31499
648 216 5 -0.82 3.3587 7.9379 8.50915
649 217 3 0.41 6.61091 4.71514 -12.3197
650 217 3 0.41 6.94947 3.17964 -12.0831
651 217 5 -0.82 7.27094 4.12336 -11.8249
652 218 3 0.41 10.5993 5.34836 14.3961
653 218 3 0.41 9.1557 5.85632 14.1731
654 218 5 -0.82 9.74391 5.57007 14.9202
655 219 3 0.41 7.67836 11.7516 -3.3765
656 219 3 0.41 8.49189 12.4342 -4.74907
657 219 5 -0.82 8.52324 12.0071 -3.8445
658 220 3 0.41 1.96226 4.78378 19.3579
659 220 3 0.41 3.04569 3.98978 18.5257
660 220 5 -0.82 2.34487 3.82808 19.2181
661 221 3 0.41 -0.628616 2.6021 -7.53903
662 221 3 0.41 -1.45164 2.53472 -8.94074
663 221 5 -0.82 -1.49445 2.27392 -7.95629
664 222 3 0.41 11.0161 11.6199 -22.1699
665 222 3 0.41 12.163 -1.23619 -22.0817
666 222 5 -0.82 11.4054 12.4131 -22.6328
667 223 3 0.41 0.247385 -0.521436 -15.6974
668 223 3 0.41 0.916785 12.23 -15.0465
669 223 5 -0.82 0.954143 -0.795238 -14.9905
670 224 3 0.41 1.0653 0.116671 5.72317
671 224 3 0.41 0.608089 -1.39067 5.56467
672 224 5 -0.82 0.640278 -0.627886 6.23934
673 225 3 0.41 8.31678 7.60399 0.957406
674 225 3 0.41 6.93717 8.10476 1.18481
675 225 5 -0.82 7.72326 8.32996 0.659295
676 226 3 0.41 6.50594 7.29792 16.4316
677 226 3 0.41 8.05187 6.7769 16.4554
678 226 5 -0.82 7.06443 6.3993 16.514
679 227 3 0.41 5.83841 8.33712 20.5476
680 227 3 0.41 7.36848 8.96612 20.7816
681 227 5 -0.82 6.60749 8.86 20.0525
682 228 3 0.41 2.35115 3.95553 -12.1533
683 228 3 0.41 3.23221 2.93905 -11.3523
684 228 5 -0.82 2.47636 2.94729 -12.0321
685 229 3 0.41 12.0405 5.07484 -21.3415
686 229 3 0.41 10.5885 5.31212 -21.9892
687 229 5 -0.82 11.4501 4.81558 -22.1467
688 230 3 0.41 6.6371 1.00313 -5.52667
689 230 3 0.41 6.01867 -0.0598534 -6.61518
690 230 5 -0.82 6.88483 0.443024 -6.33683
691 231 3 0.41 7.41523 5.90613 -6.31284
692 231 3 0.41 7.1037 6.96031 -5.08888
693 231 5 -0.82 6.73294 6.08717 -5.56576
694 232 3 0.41 -0.356889 -0.422348 -8.57158
695 232 3 0.41 12.4538 0.0591723 -9.5362
696 232 5 -0.82 -0.737138 -0.56729 -9.5199
697 233 3 0.41 9.27605 3.57996 -4.0437
698 233 3 0.41 9.16735 4.99596 -4.66929
699 233 5 -0.82 8.60204 4.34095 -4.15149
700 234 3 0.41 8.90726 -1.01953 1.47348
701 234 3 0.41 8.855 0.565601 1.57834
702 234 5 -0.82 9.24231 -0.233048 2.06108
703 235 3 0.41 8.8104 8.66755 9.55827
704 235 3 0.41 9.04822 9.85201 8.4409
705 235 5 -0.82 8.45499 9.51962 9.13787
706 236 3 0.41 7.15357 3.82819 4.24024
707 236 3 0.41 6.72284 4.19944 2.6856
708 236 5 -0.82 6.42528 3.71324 3.54105
709 237 3 0.41 9.83815 10.1774 12.0409
710 237 3 0.41 10.4556 10.7028 10.6427
711 237 5 -0.82 9.94443 11.0284 11.4621
712 238 3 0.41 3.09068 8.13741 4.19003
713 238 3 0.41 3.04407 8.52242 5.76542
714 238 5 -0.82 3.12703 7.69193 5.10825
715 239 3 0.41 5.25689 -0.278044 3.21074
716 239 3 0.41 5.04577 0.924837 2.29634
717 239 5 -0.82 5.07403 0.706687 3.29565
718 240 3 0.41 6.9582 -0.736864 -0.673943
719 240 3 0.41 8.66273 -1.1081 -0.755527
720 240 5 -0.82 7.94204 -0.431843 -0.512675
721 241 3 0.41 10.3249 3.11315 2.37296
722 241 3 0.41 10.6496 3.59751 3.75074
723 241 5 -0.82 9.83303 3.39669 3.1857
724 242 3 0.41 0.0660085 10.4899 5.08901
725 242 3 0.41 1.03946 11.2159 4.14613
726 242 5 -0.82 0.167323 11.3977 4.59811
727 243 3 0.41 -1.47025 1.73464 -15.2989
728 243 3 0.41 -1.32918 2.89781 -16.2979
729 243 5 -0.82 -1.03118 1.90961 -16.204
730 244 3 0.41 2.45502 7.19441 22.995
731 244 3 0.41 3.51978 7.6634 21.855
732 244 5 -0.82 2.54602 7.43344 22.0184
733 245 3 0.41 1.21813 5.9896 -22.067
734 245 3 0.41 2.13102 4.80306 -21.585
735 245 5 -0.82 2.20279 5.65775 -22.1165
736 246 3 0.41 -0.644774 8.33539 20.9233
737 246 3 0.41 -1.06751 7.03923 21.4287
738 246 5 -0.82 -1.3027 7.60331 20.6453
739 247 3 0.41 9.74502 10.8598 18.0068
740 247 3 0.41 10.9356 10.5307 16.9749
741 247 5 -0.82 10.0728 11.0686 17.0575
742 248 3 0.41 7.12534 9.53546 10.4677
743 248 3 0.41 6.34851 8.1038 10.4321
744 248 5 -0.82 6.23557 9.11339 10.7463
745 249 3 0.41 6.8106 10.253 -13.0646
746 249 3 0.41 7.49378 8.83553 -13.6913
747 249 5 -0.82 7.53955 9.86352 -13.6653
748 250 3 0.41 -0.450137 5.97814 23.2107
749 250 3 0.41 -0.254735 4.65547 22.3038
750 250 5 -0.82 -0.657263 5.60611 22.2786
751 251 3 0.41 -0.0162329 2.52232 8.71241
752 251 3 0.41 1.14132 3.23737 9.7108