ITEM: TIMESTEP
30000
ITEM: NUMBER OF ATOMS
1360
ITEM: BOX BOUNDS pp pp pp
-1.5000000000000000e+00 1.2500000000000000e+01
-1.5000000000000000e+00 1.2500000000000000e+01
-2.7500000000000000e+01 2.7500000000000000e+01
ITEM: ATOMS id mol type q x y z
1 1 3 0.41 1.71773 0.571393 6.20498
2 1 3 0.41 0.783456 1.66233 6.99999
3 1 5 -0.82 1.50794 1.55911 6.29272
4 2 3 0.41 8.20194 7.52632 -13.488
5 2 3 0.41 8.44765 8.31204 -12.1128
6 2 5 -0.82 8.76025 8.27443 -13.0922
7 3 3 0.41 3.00162 11.3745 13.6965
8 3 3 0.41 2.19036 10.353 12.7755
9 3 5 -0.82 2.43032 11.3753 12.8693
10 4 3 0.41 12.1958 -0.284215 -19.379
11 4 3 0.41 10.8181 0.423504 -19.5679
12 4 5 -0.82 11.5022 -0.0998469 -20.1145
13 5 3 0.41 1.06775 7.93615 -10.0536
14 5 3 0.41 2.13576 7.61963 -8.97398
15 5 5 -0.82 2.08454 8.03264 -9.90406
16 6 3 0.41 7.60143 1.15673 -21.2175
17 6 3 0.41 6.19168 0.881318 -21.8147
18 6 5 -0.82 7.11192 1.2376 -22.0546
19 7 3 0.41 0.0419831 9.65822 -17.9617
20 7 3 0.41 0.698221 9.78877 -16.5027
21 7 5 -0.82 0.928758 9.57662 -17.4677
22 8 3 0.41 3.88347 7.06198 17.2847
23 8 3 0.41 4.45281 6.78258 18.6994
24 8 5 -0.82 4.34039 7.54652 18.04
25 9 3 0.41 -1.10433 7.13998 -18.835
26 9 3 0.41 -0.543697 8.2123 -19.9829
27 9 5 -0.82 -0.490577 7.2423 -19.6553
28 10 3 0.41 8.91507 5.76541 7.29581
29 10 3 0.41 9.15391 5.95242 5.70898
30 10 5 -0.82 8.60133 6.30143 6.48198
31 11 3 0.41 0.599516 11.7025 -10.6213
32 11 3 0.41 0.640844 11.7614 -8.95381
33 11 5 -0.82 0.922893 12.254 -9.80537
34 12 3 0.41 2.21104 4.58625 -14.165
35 12 3 0.41 0.766641 4.11043 -14.7648
36 12 5 -0.82 1.56962 4.72945 -14.9618
37 13 3 0.41 2.50038 12.3443 5.62966
38 13 3 0.41 2.37296 12.3787 4.11445
39 13 5 -0.82 2.99563 -1.26414 4.83108
40 14 3 0.41 8.04936 5.67688 -16.4711
41 14 3 0.41 7.50467 4.45596 -15.5647
42 14 5 -0.82 8.22049 4.67717 -16.2368
43 15 3 0.41 3.13756 3.13126 -0.166908
44 15 3 0.41 4.61344 3.44446 0.142485
45 15 5 -0.82 3.98022 3.44269 -0.636167
46 16 3 0.41 11.4056 6.92315 10.3542
47 16 3 0.41 -1.12651 7.27774 10.4279
48 16 5 -0.82 12.2863 6.55333 10.0293
49 17 3 0.41 9.02047 12.229 23.2116
50 17 3 0.41 9.52156 -0.416299 22.3109
51 17 5 -0.82 8.99317 -1.31671 22.3168
52 18 3 0.41 3.57251 0.239973 -21.8369
53 18 3 0.41 2.97739 1.73425 -21.9714
54 18 5 -0.82 3.87066 1.21662 -22.0725
55 19 3 0.41 -1.41159 10.3908 4.83807
56 19 3 0.41 11.3082 11.392 5.63122
57 19 5 -0.82 11.8326 11.0644 4.80067
58 20 3 0.41 11.0225 -1.31415 -17.1493
59 20 3 0.41 10.8079 11.1409 -17.0519
60 20 5 -0.82 11.5662 11.8366 -17.156
61 21 3 0.41 11.6517 8.71023 23.1434
62 21 3 0.41 -1.26337 7.91535 22.3103
63 21 5 -0.82 11.8197 8.27939 22.2653
64 22 3 0.41 7.87683 8.92799 -19.5843
65 22 3 0.41 8.99629 7.7919 -19.7115
66 22 5 -0.82 7.99237 7.95962 -19.625
67 23 3 0.41 10.0692 3.44896 -18.3901
68 23 3 0.41 9.25646 3.54424 -16.9714
69 23 5 -0.82 9.76463 2.87418 -17.5616
70 24 3 0.41 7.93049 7.87097 -17.4231
71 24 3 0.41 6.92504 7.9147 -16.0647
72 24 5 -0.82 7.25395 7.34006 -16.8591
73 25 3 0.41 11.5597 5.6007 -13.0747
74 25 3 0.41 -1.37682 5.17226 -11.8887
75 25 5 -0.82 12.3983 5.04357 -12.8829
76 26 3 0.41 6.7052 11.7351 -14.9631
77 26 3 0.41 5.95637 -0.90197 -14.8591
78 26 5 -0.82 5.92665 12.267 -15.3546
79 27 3 0.41 12.2819 0.523829 -11.2941
80 27 3 0.41 11.7347 2.10004 -11.4237
81 27 5 -0.82 12.3668 1.42484 -11.8537
82 28 3 0.41 8.73868 0.36117 -11.0799
83 28 3 0.41 9.91922 -0.326133 -11.634
84 28 5 -0.82 9.09621 0.194616 -11.9952
85 29 3 0.41 10.747 9.12082 21.62
86 29 3 0.41 10.4667 10.6397 21.5048
87 29 5 -0.82 10.1226 9.75453 21.1032
88 30 3 0.41 0.308106 4.02781 10.9827
89 30 3 0.41 -0.647351 4.95262 10.3043
90 30 5 -0.82 0.0837067 4.30784 10.0448
91 31 3 0.41 4.73893 0.615546 -16.1753
92 31 3 0.41 4.02313 0.885294 -17.7006
93 31 5 -0.82 4.82012 0.477818 -17.1752
94 32 3 0.41 -1.24987 8.40908 -16.9886
95 32 3 0.41 11.255 8.15545 -16.6741
96 32 5 -0.82 12.0333 7.7814 -17.2152
97 33 3 0.41 2.84205 10.665 -14.5641
98 33 3 0.41 4.08568 11.1988 -15.5494
99 33 5 -0.82 3.10745 10.9728 -15.5232
100 34 3 0.41 -1.46829 -0.869519 7.70643
101 34 3 0.41 -1.33495 12.0191 8.81186
102 34 5 -0.82 12.2561 -1.09492 8.62966
103 35 3 0.41 0.218462 8.79314 18.4357
104 35 3 0.41 1.69441 8.28208 18.7165
105 35 5 -0.82 0.97373 8.2285 18.027
106 36 3 0.41 9.21192 0.875225 -7.46272
107 36 3 0.41 8.90362 0.651798 -5.92523
108 36 5 -0.82 8.65358 0.324172 -6.86264
109 37 3 0.41 9.43775 6.6513 21.5801
110 37 3 0.41 11.0146 6.56436 22.1717
111 37 5 -0.82 10.3118 6.15848 21.5397
112 38 3 0.41 8.12083 6.86731 -5.08254
113 38 3 0.41 8.7158 7.88368 -4.08761
114 38 5 -0.82 8.99069 7.37501 -4.91747
115 39 3 0.41 7.2907 1.87186 -17.3197
116 39 3 0.41 6.35515 1.06261 -18.085
117 39 5 -0.82 7.12034 1.70913 -18.3092
118 40 3 0.41 6.69118 4.17766 -21.1841
119 40 3 0.41 7.14732 3.14437 -22.2213
120 40 5 -0.82 7.13093 4.13255 -22.1001
121 41 3 0.41 8.40032 10.4299 -13.97
122 41 3 0.41 8.48465 10.8593 -15.4429
123 41 5 -0.82 8.13438 11.195 -14.5605
124 42 3 0.41 2.92115 7.34754 7.68216
125 42 3 0.41 1.79469 6.5302 6.77121
126 42 5 -0.82 2.62598 7.09723 6.71249
127 43 3 0.41 11.3787 11.9146 19.2156
128 43 3 0.41 -1.23604 -1.39134 19.0739
129 43 5 -0.82 12.2681 11.7466 18.8143
130 44 3 0.41 7.42035 -1.13827 -22.5034
131 44 3 0.41 8.95325 -0.484654 -22.5791
132 44 5 -0.82 8.3975 -1.29677 -22.464
133 45 3 0.41 4.89455 11.2638 6.29829
134 45 3 0.41 5.51291 -1.46957 5.5501
135 45 5 -0.82 5.20137 12.2115 6.47772
136 46 3 0.41 6.11026 -0.627743 23.0735
137 46 3 0.41 7.30079 -1.36383 22.2682
138 46 5 -0.82 6.28558 -1.2547 22.3299
139 47 3 0.41 8.69941 8.8272 8.27072
140 47 3 0.41 8.06566 9.96832 9.15828
141 47 5 -0.82 7.94005 8.98589 8.90653
142 48 3 0.41 10.9433 12.1308 7.52698
143 48 3 0.41 10.7425 10.693 7.74853
144 48 5 -0.82 10.4812 11.4191 7.06277
145 49 3 0.41 10.0291 6.05224 -2.04538
146 49 3 0.41 8.81173 4.99465 -2.53164
147 49 5 -0.82 9.76477 5.31575 -2.68459
148 50 3 0.41 5.26507 9.91762 13.942
149 50 3 0.41 5.93956 11.321 14.1896
150 50 5 -0.82 5.07903 10.8908 13.9177
151 51 3 0.41 1.07557 2.06421 2.03399
152 51 3 0.41 0.286327 3.12586 2.71217
153 51 5 -0.82 0.811883 2.33347 2.9649
154 52 3 0.41 11.7764 3.50663 -19.1195
155 52 3 0.41 12.2774 2.30308 -18.3152
156 52 5 -0.82 12.1895 2.61064 -19.2504
157 53 3 0.41 3.98196 10.0549 7.1615
158 53 3 0.41 2.32177 10.0548 6.98654
159 53 5 -0.82 3.20632 10.2134 6.5174
160 54 3 0.41 3.45512 8.71748 15.0392
161 54 3 0.41 1.77069 8.90242 15.4223
162 54 5 -0.82 2.72066 9.2909 15.4699
163 55 3 0.41 -0.176585 4.29607 0.150109
164 55 3 0.41 1.20808 3.43844 0.162521
165 55 5 -0.82 0.793385 4.38198 0.195094
166 56 3 0.41 7.06688 2.21185 -0.422785
167 56 3 0.41 6.60089 2.63 0.961313
168 56 5 -0.82 6.86122 1.77966 0.44108
169 57 3 0.41 0.913469 10.4828 -21.6016
170 57 3 0.41 0.0858393 11.7809 -21.148
171 57 5 -0.82 0.107329 10.7462 -21.0323
172 58 3 0.41 10.8161 1.1762 -21.611
173 58 3 0.41 9.30573 1.43843 -21.616
174 58 5 -0.82 10.0036 1.03641 -22.2157
175 59 3 0.41 12.0471 10.3979 0.246355
176 59 3 0.41 11.5218 9.04692 0.667313
177 59 5 -0.82 11.4445 9.66441 -0.113304
178 60 3 0.41 9.83488 8.81698 -2.29019
179 60 3 0.41 8.65856 8.80423 -1.2735
180 60 5 -0.82 8.92819 8.47577 -2.16014
181 61 3 0.41 4.91824 0.17167 9.29288
182 61 3 0.41 5.19232 -0.160084 10.9063
183 61 5 -0.82 5.61732 0.264042 9.99237
184 62 3 0.41 -1.31282 8.41632 -3.28155
185 62 3 0.41 12.1977 8.42416 -4.79906
186 62 5 -0.82 -1.25837 7.93028 -4.14342
187 63 3 0.41 6.77662 6.87221 19.4689
188 63 3 0.41 8.33056 6.68 19.146
189 63 5 -0.82 7.48965 6.11389 19.2736
190 64 3 0.41 7.95289 3.71867 6.59104
191 64 3 0.41 9.23295 2.95047 5.74447
192 64 5 -0.82 8.24545 3.19677 5.7581
193 65 3 0.41 5.10945 9.20037 0.218871
194 65 3 0.41 6.04019 7.88741 0.125129
195 65 5 -0.82 5.46112 8.40744 0.782165
196 66 3 0.41 0.590043 9.58695 1.08648
197 66 3 0.41 1.73498 8.98999 1.94157
198 66 5 -0.82 0.763447 8.82297 1.72863
199 67 3 0.41 8.31434 10.249 18.5954
200 67 3 0.41 9.1298 8.93205 18.1914
201 67 5 -0.82 8.42675 9.59345 17.8203
202 68 3 0.41 2.92958 -0.0207322 18.928
203 68 3 0.41 3.77149 -0.953521 17.9793
204 68 5 -0.82 3.82898 -0.532842 18.9175
205 69 3 0.41 1.46408 1.31954 -13.0175
206 69 3 0.41 1.02836 -0.0416273 -13.7522
207 69 5 -0.82 1.75992 0.674049 -13.7515
208 70 3 0.41 7.18464 -0.0672608 -9.62117
209 70 3 0.41 8.49315 -0.0847626 -8.61217
210 70 5 -0.82 8.08455 -0.521464 -9.42133
211 71 3 0.41 5.81077 5.44242 7.39901
212 71 3 0.41 7.04963 5.71271 6.40644
213 71 5 -0.82 6.06937 5.41603 6.40181
214 72 3 0.41 7.39222 8.36253 16.8763
215 72 3 0.41 6.64492 7.43159 15.8513
216 72 5 -0.82 7.40747 7.41847 16.5367
217 73 3 0.41 1.74939 0.449975 -2.28978
218 73 3 0.41 3.26492 0.33347 -1.91409
219 73 5 -0.82 2.6543 0.214421 -2.70166
220 74 3 0.41 8.70847 4.4739 9.21812
221 74 3 0.41 7.80144 3.28653 8.78586
222 74 5 -0.82 7.95062 4.27264 8.60462
223 75 3 0.41 0.756915 9.93429 -14.4029
224 75 3 0.41 -0.243574 8.70126 -14.6761
225 75 5 -0.82 -0.101409 9.68766 -14.8552
226 76 3 0.41 7.31267 11.4414 -8.05094
227 76 3 0.41 6.34569 10.2972 -7.73979
228 76 5 -0.82 6.54876 10.9496 -8.51882
229 77 3 0.41 9.04875 -1.17657 16.5305
230 77 3 0.41 9.93441 -1.13816 17.8591
231 77 5 -0.82 9.96748 -1.44303 16.8772
232 78 3 0.41 10.7494 7.88026 -20.5373
233 78 3 0.41 11.3267 8.11481 -18.9924
234 78 5 -0.82 10.6455 7.60877 -19.5825
235 79 3 0.41 9.14351 -0.0142143 9.39975
236 79 3 0.41 8.09332 -1.33815 9.4292
237 79 5 -0.82 8.54424 -0.604104 10.0153
238 80 3 0.41 4.5569 3.19289 -19.6613
239 80 3 0.41 5.96611 2.56107 -19.4323
240 80 5 -0.82 5.53229 3.42507 -19.8138
241 81 3 0.41 6.97102 11.6583 -3.16809
242 81 3 0.41 8.1511 10.8471 -2.19024
243 81 5 -0.82 7.79966 11.7083 -2.61483
244 82 3 0.41 7.49153 3.76859 14.8749
245 82 3 0.41 7.56529 5.24237 15.236
246 82 5 -0.82 7.77635 4.65099 14.5046
247 83 3 0.41 5.09884 8.30317 12.1849
248 83 3 0.41 5.14069 9.53959 11.1791
249 83 5 -0.82 4.54264 8.67128 11.4116
250 84 3 0.41 2.78716 -0.49376 7.73515
251 84 3 0.41 4.31029 -0.92976 7.20009
252 84 5 -0.82 3.77215 -0.320881 7.89671
253 85 3 0.41 9.00854 4.86997 21.658
254 85 3 0.41 8.38508 4.42992 23.0913
255 85 5 -0.82 8.31154 4.24952 22.0893
256 86 3 0.41 11.6304 -0.884093 -9.80225
257 86 3 0.41 11.3819 12.1331 -11.0564
258 86 5 -0.82 11.2815 -0.926701 -10.7475
259 87 3 0.41 2.31071 5.28708 3.64742
260 87 3 0.41 3.58814 4.75273 2.86697
261 87 5 -0.82 2.95741 4.52892 3.6308
262 88 3 0.41 3.67655 8.93698 21.2427
263 88 3 0.41 3.87465 8.77329 22.8917
264 88 5 -0.82 4.35091 8.8656 22.0059
265 89 3 0.41 -0.0042925 2.7948 -13.6394
266 89 3 0.41 -0.975096 3.93748 -14.0882
267 89 5 -0.82 -0.444568 3.13125 -14.4567
268 90 3 0.41 5.08112 9.44973 -12.0679
269 90 3 0.41 5.79322 10.8833 -11.6706
270 90 5 -0.82 5.88997 9.97792 -12.2283
271 91 3 0.41 8.1774 0.164397 6.19071
272 91 3 0.41 8.3486 -1.02975 5.2078
273 91 5 -0.82 8.66742 -0.0857804 5.34187
274 92 3 0.41 8.85588 9.41893 0.444674
275 92 3 0.41 7.50369 10.2923 0.327501
276 92 5 -0.82 8.36333 10.0686 -0.193954
277 93 3 0.41 -0.227721 10.7643 11.9577
278 93 3 0.41 12.2543 11.2794 12.2513
279 93 5 -0.82 -1.06464 10.5413 12.486
280 94 3 0.41 11.8174 7.67865 -0.670121
281 94 3 0.41 12.0398 6.16098 -0.744732
282 94 5 -0.82 11.2804 6.82141 -0.826414
283 95 3 0.41 4.56801 5.45438 15.2637
284 95 3 0.41 5.27662 4.23753 16.1719
285 95 5 -0.82 4.6089 4.4293 15.4568
286 96 3 0.41 10.3034 10.5113 13.0944
287 96 3 0.41 9.10152 10.6631 12.0625
288 96 5 -0.82 9.96314 10.1435 12.2155
289 97 3 0.41 12.286 2.5981 21.7503
290 97 3 0.41 11.8404 3.58315 22.8793
291 97 5 -0.82 11.6983 3.40809 21.8887
292 98 3 0.41 9.6713 8.14953 -14.6265
293 98 3 0.41 10.1502 8.86467 -15.8907
294 98 5 -0.82 10.4043 8.04891 -15.3064
295 99 3 0.41 7.17039 7.475 13.1944
296 99 3 0.41 7.47095 7.20589 11.6146
297 99 5 -0.82 7.86382 7.61258 12.4688
298 100 3 0.41 10.2489 2.10178 -2.90656
299 100 3 0.41 11.8589 2.23039 -3.15704
300 100 5 -0.82 10.9669 2.17231 -3.60536
301 101 3 0.41 5.00738 0.153265 1.2466
302 101 3 0.41 5.27267 -0.255351 2.77731
303 101 5 -0.82 4.76119 -0.542713 1.91455
304 102 3 0.41 3.86878 8.25429 -16.6696
305 102 3 0.41 3.62391 9.88638 -16.5218
306 102 5 -0.82 3.97652 9.14909 -17.145
307 103 3 0.41 3.45328 -1.34602 9.66261
308 103 3 0.41 3.94226 11.1435 9.3465
309 103 5 -0.82 3.34364 11.675 9.94685
310 104 3 0.41 9.97789 9.85359 -5.89448
311 104 3 0.41 10.2856 10.4822 -4.46025
312 104 5 -0.82 9.52991 10.2933 -5.07952
313 105 3 0.41 2.46938 6.695 9.84472
314 105 3 0.41 1.4006 5.45238 10.184
315 105 5 -0.82 2.35448 5.74741 10.2188
316 106 3 0.41 2.81385 8.72367 -0.08874
317 106 3 0.41 2.80011 9.67839 -1.43614
318 106 5 -0.82 2.87404 8.69521 -1.12199
319 107 3 0.41 5.99133 11.2967 -6.0808
320 107 3 0.41 4.45994 10.6802 -5.7349
321 107 5 -0.82 5.44257 10.4447 -6.08322
322 108 3 0.41 2.01851 9.32202 -18.8208
323 108 3 0.41 3.49733 9.56019 -18.8602
324 108 5 -0.82 2.73757 9.43844 -19.5136
325 109 3 0.41 10.2188 11.955 -22.1431
326 109 3 0.41 11.3612 -1.12704 -21.3836
327 109 5 -0.82 11.1979 12.2419 -22.1808
328 110 3 0.41 3.89501 -0.383349 -5.9479
329 110 3 0.41 3.21443 -0.207202 -4.57491
330 110 5 -0.82 2.94058 -0.155886 -5.58213
331 111 3 0.41 4.78201 3.81608 -9.50575
332 111 3 0.41 5.63499 4.04326 -8.26726
333 111 5 -0.82 5.71525 3.62399 -9.17156
334 112 3 0.41 1.10801 3.40147 -22.0823
335 112 3 0.41 1.34763 2.2154 -21.1038
336 112 5 -0.82 1.7705 2.61151 -21.947
337 113 3 0.41 7.45834 -1.3894 19.5237
338 113 3 0.41 7.72851 0.18549 19.1492
339 113 5 -0.82 6.99771 -0.47179 19.3786
340 114 3 0.41 8.88212 0.427681 -18.9792
341 114 3 0.41 8.06349 -0.976575 -19.1802
342 114 5 -0.82 8.61191 -0.24611 -19.6565
343 115 3 0.41 9.20809 5.84469 1.45717
344 115 3 0.41 10.0675 6.15835 0.14355
345 115 5 -0.82 9.34992 5.55059 0.523591
346 116 3 0.41 0.394923 0.585908 18.9329
347 116 3 0.41 -0.207902 0.391052 17.535
348 116 5 -0.82 -0.46318 0.263393 18.4933
349 117 3 0.41 7.27684 7.96546 -21.7928
350 117 3 0.41 5.88877 6.97679 -21.5551
351 117 5 -0.82 6.65735 7.27039 -22.1898
352 118 3 0.41 10.6634 -0.663736 -5.10376
353 118 3 0.41 12.0049 -1.24408 -4.65688
354 118 5 -0.82 11.4614 -1.11783 -5.50884
355 119 3 0.41 2.61618 9.40026 -6.34353
356 119 3 0.41 3.747 8.93338 -7.45015
357 119 5 -0.82 2.85749 9.44879 -7.3254
358 120 3 0.41 6.31893 11.4536 16.7122
359 120 3 0.41 4.8208 12.1398 16.1792
360 120 5 -0.82 5.77177 12.2936 16.4605
361 121 3 0.41 9.43201 5.40209 -12.6451
362 121 3 0.41 8.76499 5.43222 -14.2217
363 121 5 -0.82 9.60965 5.52931 -13.668
364 122 3 0.41 11.7974 9.63279 10.1461
365 122 3 0.41 10.6142 10.5064 10.6619
366 122 5 -0.82 11.1729 10.3696 9.82357
367 123 3 0.41 7.1111 -1.34757 -1.56482
368 123 3 0.41 7.19009 -0.168067 -0.490267
369 123 5 -0.82 6.54053 -0.619777 -1.11439
370 124 3 0.41 3.54497 10.9397 0.512107
371 124 3 0.41 3.72046 10.8041 2.13592
372 124 5 -0.82 3.05201 10.7064 1.40368
373 125 3 0.41 2.71051 9.88782 -21.2712
374 125 3 0.41 2.87594 11.2042 -22.2458
375 125 5 -0.82 2.52572 10.242 -22.223
376 126 3 0.41 3.7914 1.6932 -11.0397
377 126 3 0.41 5.08452 2.64888 -11.4175
378 126 5 -0.82 4.07745 2.65617 -11.223
379 127 3 0.41 0.254486 11.4457 14.0284
380 127 3 0.41 -0.346375 12.4442 15.0454
381 127 5 -0.82 0.191239 12.441 14.1576
382 128 3 0.41 11.2545 3.67946 13.8848
383 128 3 0.41 11.5192 2.76585 12.595
384 128 5 -0.82 11.9688 3.36117 13.2935
385 129 3 0.41 12.2781 7.78379 8.11894
386 129 3 0.41 -0.484343 8.51168 7.53329
387 129 5 -0.82 -0.997512 7.64697 7.41727
388 130 3 0.41 3.35863 -0.99548 -11.8961
389 130 3 0.41 4.13822 12.1709 -13.0314
390 130 5 -0.82 3.21032 12.3786 -12.678
391 131 3 0.41 2.87137 9.0637 -12.9449
392 131 3 0.41 2.18408 10.3206 -12.5217
393 131 5 -0.82 2.17952 9.70532 -13.3442
394 132 3 0.41 4.6132 1.31115 -0.043353
395 132 3 0.41 5.13914 0.016524 -0.789933
396 132 5 -0.82 4.27623 0.440218 -0.492719
397 133 3 0.41 3.84979 2.11463 2.61076
398 133 3 0.41 5.17017 3.04587 2.58966
399 133 5 -0.82 4.54856 2.52959 1.92565
400 134 3 0.41 6.52727 3.27784 4.84504
401 134 3 0.41 5.07843 4.00132 4.66827
402 134 5 -0.82 5.90261 3.70699 4.16461
403 135 3 0.41 5.29085 4.92972 -16.9293
404 135 3 0.41 5.88032 6.34554 -17.1196
405 135 5 -0.82 5.24222 5.68528 -17.5396
406 136 3 0.41 1.78074 11.6764 10.5523
407 136 3 0.41 0.352273 11.5222 9.80548
408 136 5 -0.82 0.774045 11.8424 10.6485
409 137 3 0.41 -0.709859 0.189613 0.52172
410 137 3 0.41 -0.959411 1.60152 -0.253675
411 137 5 -0.82 -1.13378 1.12739 0.653004
412 138 3 0.41 11.3099 2.31937 10.4421
413 138 3 0.41 -1.32976 2.7319 9.64463
414 138 5 -0.82 12.282 2.47736 10.5676
415 139 3 0.41 7.35429 10.7524 20.5411
416 139 3 0.41 8.93798 10.5897 20.5079
417 139 5 -0.82 8.11222 10.9663 19.9568
418 140 3 0.41 4.65549 8.75417 -9.24641
419 140 3 0.41 5.76055 7.51896 -8.94803
420 140 5 -0.82 4.97381 8.07737 -8.57361
421 141 3 0.41 5.66778 10.095 -20.1781
422 141 3 0.41 5.02341 8.9575 -21.1668
423 141 5 -0.82 5.49246 9.8781 -21.1854
424 142 3 0.41 8.3119 3.40529 -6.20385
425 142 3 0.41 9.50686 3.65664 -6.97632
426 142 5 -0.82 8.5341 3.65635 -7.17027
427 143 3 0.41 -0.585245 1.19414 11.2521
428 143 3 0.41 -1.31305 -0.229259 11.5392
429 143 5 -0.82 -0.426978 0.276399 11.6177
430 144 3 0.41 2.20495 6.51598 -16.548
431 144 3 0.41 0.965552 7.48283 -16.9803
432 144 5 -0.82 1.39795 6.60289 -17.1951
433 145 3 0.41 9.87042 0.113456 -14.3694
434 145 3 0.41 8.79837 -1.19297 -14.5767
435 145 5 -0.82 9.08855 -0.269077 -14.9138
436 146 3 0.41 3.46752 2.14789 -7.39918
437 146 3 0.41 3.91293 0.705277 -7.40509
438 146 5 -0.82 3.42307 1.35382 -8.03865
439 147 3 0.41 0.744959 12.4034 3.14327
440 147 3 0.41 1.59351 11.1008 2.62254
441 147 5 -0.82 1.18655 11.5372 3.44417
442 148 3 0.41 -0.577533 11.1324 17.0369
443 148 3 0.41 0.2894 10.0364 16.1413
444 148 5 -0.82 0.343885 10.7435 16.8538
445 149 3 0.41 11.4723 5.1361 -3.02914
446 149 3 0.41 -1.422 6.20134 -3.20592
447 149 5 -0.82 12.4619 5.22254 -2.88341
448 150 3 0.41 11.096 1.13643 -14.6173
449 150 3 0.41 11.938 0.899244 -13.2953
450 150 5 -0.82 11.5099 0.376944 -14.0588
451 151 3 0.41 1.81455 0.799635 10.0809
452 151 3 0.41 3.12158 1.07513 10.9915
453 151 5 -0.82 2.48833 0.363106 10.6963
454 152 3 0.41 -0.44713 3.5138 5.62328
455 152 3 0.41 0.581548 4.57777 6.20829
456 152 5 -0.82 0.366114 4.06362 5.36179
457 153 3 0.41 2.84506 1.19916 13.8272
458 153 3 0.41 2.57279 -0.169837 14.5444
459 153 5 -0.82 2.39235 0.303493 13.6824
460 154 3 0.41 4.86318 -0.158354 -19.1087
461 154 3 0.41 6.13831 -0.910243 -19.2563
462 154 5 -0.82 5.48347 -0.432118 -19.8257
463 155 3 0.41 6.99037 8.00572 20.9702
464 155 3 0.41 5.46247 8.18769 20.8744
465 155 5 -0.82 6.26468 8.02417 20.2986
466 156 3 0.41 8.3166 11.2353 -5.70063
467 156 3 0.41 8.27493 -1.30567 -6.61708
468 156 5 -0.82 7.71296 11.9696 -6.12117
469 157 3 0.41 -1.19227 12.0721 21.6415
470 157 3 0.41 12.0211 11.8186 23.0042
471 157 5 -0.82 11.9734 11.5856 21.9862
472 158 3 0.41 0.923354 9.34137 -7.46707
473 158 3 0.41 -0.1558 9.13747 -6.19741
474 158 5 -0.82 0.0914475 8.8944 -7.17699
475 159 3 0.41 6.39636 6.16166 -11.3183
476 159 3 0.41 6.9684 7.39192 -10.3848
477 159 5 -0.82 6.37009 6.59422 -10.3446
478 160 3 0.41 9.00357 1.83489 11.3869
479 160 3 0.41 9.54954 3.15402 11.7921
480 160 5 -0.82 9.62753 2.20482 12.1154
481 161 3 0.41 3.10513 -0.706011 1.54284
482 161 3 0.41 1.71103 -1.36301 1.23048
483 161 5 -0.82 2.15733 -0.454893 1.40035
484 162 3 0.41 1.44519 7.26015 -4.85195
485 162 3 0.41 0.254919 6.39684 -5.5334
486 162 5 -0.82 1.27281 6.44687 -5.41697
487 163 3 0.41 0.0770612 -1.4912 -14.8235
488 163 3 0.41 -1.19033 -0.697774 -14.2282
489 163 5 -0.82 -0.28058 -1.04198 -13.9874
490 164 3 0.41 4.77914 9.75132 -2.72051
491 164 3 0.41 5.43369 8.88929 -3.78639
492 164 5 -0.82 4.53447 8.96322 -3.31643
493 165 3 0.41 8.90579 6.23986 17.0972
494 165 3 0.41 9.56184 4.8976 17.9307
495 165 5 -0.82 9.48149 5.42338 17.1021
496 166 3 0.41 9.3156 2.73603 15.4392
497 166 3 0.41 9.97236 4.12668 16.0401
498 166 5 -0.82 10.1553 3.30491 15.4707
499 167 3 0.41 9.73784 3.51952 -10.8789
500 167 3 0.41 11.0537 4.36962 -11.0084
501 167 5 -0.82 10.6879 3.45216 -11.1621
502 168 3 0.41 2.22648 -0.337643 -10.3942
503 168 3 0.41 3.33749 0.393503 -9.54294
504 168 5 -0.82 3.05511 0.208727 -10.5028
505 169 3 0.41 9.00861 6.30464 3.50396
506 169 3 0.41 9.11188 7.59386 2.65596
507 169 5 -0.82 8.47566 6.7838 2.75949
508 170 3 0.41 2.14726 3.19747 -6.48015
509 170 3 0.41 3.34411 3.65471 -5.35601
510 170 5 -0.82 3.10111 3.09413 -6.18019
511 171 3 0.41 8.33578 -1.27949 11.4742
512 171 3 0.41 8.09999 -1.34913 13.0372
513 171 5 -0.82 8.15693 12.0675 12.2539
514 172 3 0.41 0.983427 12.3984 20.475
515 172 3 0.41 0.743999 -0.425031 21.6292
516 172 5 -0.82 0.502433 -1.39764 21.3722
517 173 3 0.41 5.31047 1.92326 9.19377
518 173 3 0.41 4.09135 2.94759 8.75872
519 173 5 -0.82 5.05712 2.70764 8.56452
520 174 3 0.41 1.78984 1.32163 22.9738
521 174 3 0.41 2.52159 0.243147 22.0893
522 174 5 -0.82 1.65844 0.780469 22.0964
523 175 3 0.41 -1.16525 0.0492976 3.12107
524 175 3 0.41 0.302747 0.53953 3.54519
525 175 5 -0.82 -0.314916 -0.225404 3.58198
526 176 3 0.41 4.82535 2.02144 -3.46359
527 176 3 0.41 3.2261 2.00349 -3.30952
528 176 5 -0.82 4.02182 2.65289 -3.32788
529 177 3 0.41 5.56014 11.7525 10.711
530 177 3 0.41 6.61121 10.8781 11.5949
531 177 5 -0.82 5.88756 10.8127 10.8931
532 178 3 0.41 -1.12266 -1.21308 -22.2807
533 178 3 0.41 -0.595319 0.287483 -22.0283
534 178 5 -0.82 -0.242912 -0.665176 -22.0941
535 179 3 0.41 -0.719658 5.4281 -22.3175
536 179 3 0.41 -0.139184 4.51033 -21.254
537 179 5 -0.82 -0.134892 4.61947 -22.2578
538 180 3 0.41 -0.582851 5.68773 2.50004
539 180 3 0.41 12.1533 4.91769 1.96459
540 180 5 -0.82 -1.2917 5.77551 1.78903
541 181 3 0.41 0.0231275 5.51526 -17.2152
542 181 3 0.41 -1.22538 4.63466 -16.8385
543 181 5 -0.82 -0.631553 4.80998 -17.6221
544 182 3 0.41 0.337709 2.09303 -19.4022
545 182 3 0.41 0.380732 0.565326 -19.199
546 182 5 -0.82 0.871378 1.28122 -19.7348
547 183 3 0.41 11.0759 5.38888 -14.7823
548 183 3 0.41 11.8282 6.16318 -15.9244
549 183 5 -0.82 11.5508 5.22508 -15.6757
550 184 3 0.41 3.02287 2.96755 9.90812
551 184 3 0.41 1.45504 3.04404 9.14679
552 184 5 -0.82 2.48787 3.11225 9.03204
553 185 3 0.41 12.2017 9.78602 -9.92018
554 185 3 0.41 -1.22159 9.82361 -8.32722
555 185 5 -0.82 -1.19796 10.2904 -9.25552
556 186 3 0.41 4.92952 3.54391 -6.28619
557 186 3 0.41 6.51006 3.38012 -6.76606
558 186 5 -0.82 5.74304 4.04723 -6.63923
559 187 3 0.41 -0.665273 5.73316 5.39044
560 187 3 0.41 -1.23674 7.24166 5.7699
561 187 5 -0.82 -1.27705 6.46241 5.08833
562 188 3 0.41 12.2763 9.5318 -21.7027
563 188 3 0.41 10.7443 10.0664 -21.5473
564 188 5 -0.82 11.3262 9.24018 -21.7235
565 189 3 0.41 4.12635 10.2864 17.518
566 189 3 0.41 2.78396 10.2725 16.8435
567 189 5 -0.82 3.21973 10.727 17.6156
568 190 3 0.41 9.90506 1.6136 18.2686
569 190 3 0.41 8.36646 2.0226 18.6512
570 190 5 -0.82 8.93246 1.41562 18.0664
571 191 3 0.41 1.70128 10.0388 20.3774
572 191 3 0.41 2.86694 9.68485 19.3401
573 191 5 -0.82 2.41675 9.33497 20.1692
574 192 3 0.41 -0.704039 9.41164 20.5575
575 192 3 0.41 -1.1362 10.181 19.2451
576 192 5 -0.82 -0.902082 9.2332 19.5976
577 193 3 0.41 -1.25255 7.33754 13.2971
578 193 3 0.41 -1.4884 8.88028 12.7711
579 193 5 -0.82 12.0186 8.08646 13.1888
580 194 3 0.41 4.46465 1.71807 19.2435
581 194 3 0.41 5.47926 2.78633 18.7305
582 194 5 -0.82 4.57002 2.42645 18.5395
583 195 3 0.41 10.0335 7.18582 7.66837
584 195 3 0.41 10.1314 8.34935 6.64645
585 195 5 -0.82 10.2595 8.17448 7.68229
586 196 3 0.41 10.2574 3.66423 -21.4404
587 196 3 0.41 11.4199 4.57848 -22.1125
588 196 5 -0.82 10.9212 3.67876 -22.1879
589 197 3 0.41 7.36377 0.711076 8.43333
590 197 3 0.41 6.65016 1.19568 6.99734
591 197 5 -0.82 7.33448 0.559466 7.44305
592 198 3 0.41 4.17917 4.8096 -13.7844
593 198 3 0.41 3.58726 3.50112 -13.1262
594 198 5 -0.82 3.3408 4.43435 -13.3055
595 199 3 0.41 6.09978 -0.731674 -12.0625
596 199 3 0.41 7.30962 -0.0194844 -12.9135
597 199 5 -0.82 6.31656 -0.180924 -12.9002
598 200 3 0.41 11.0951 0.225711 9.39617
599 200 3 0.41 10.7407 1.30528 8.23461
600 200 5 -0.82 10.3646 0.895922 9.11849
601 201 3 0.41 9.74168 0.121528 14.4392
602 201 3 0.41 10.1256 0.777569 13.0913
603 201 5 -0.82 10.5272 0.237979 13.8505
604 202 3 0.41 10.2422 2.80504 -16.128
605 202 3 0.41 11.0876 3.67499 -15.1328
606 202 5 -0.82 10.6127 2.76343 -15.1515
607 203 3 0.41 3.84497 -0.375979 12.7409
608 203 3 0.41 4.65226 12.2243 12.4176
609 203 5 -0.82 4.63506 -0.793295 12.2386
610 204 3 0.41 2.22314 12.0448 -16.0693
611 204 3 0.41 1.9165 -0.387143 -16.5282
612 204 5 -0.82 1.5273 -1.34755 -16.507
613 205 3 0.41 10.8967 4.87864 -7.70477
614 205 3 0.41 11.7299 3.59218 -7.22465
615 205 5 -0.82 11.3049 3.98422 -8.04341
616 206 3 0.41 3.86474 3.83595 11.4939
617 206 3 0.41 3.93268 2.43608 12.2671
618 206 5 -0.82 4.00316 2.82832 11.301
619 207 3 0.41 10.963 1.87227 4.63343
620 207 3 0.41 10.3595 0.468472 4.35639
621 207 5 -0.82 11.1002 1.05152 4.04583
622 208 3 0.41 4.9022 2.21376 6.58988
623 208 3 0.41 4.36018 0.782124 6.50239
624 208 5 -0.82 5.02228 1.36438 6.05223
625 209 3 0.41 0.307467 5.41893 -10.955
626 209 3 0.41 1.1747 6.46197 -11.7826
627 209 5 -0.82 1.14445 5.47191 -11.5872
628 210 3 0.41 10.9866 6.10521 16.2541
629 210 3 0.41 11.5007 6.16197 14.7302
630 210 5 -0.82 11.844 6.23078 15.7379
631 211 3 0.41 8.66129 -1.34399 2.75797
632 211 3 0.41 10.0712 12.0199 2.29787
633 211 5 -0.82 9.14529 11.7995 2.64313
634 212 3 0.41 2.50276 -0.281957 16.4189
635 212 3 0.41 2.78359 12.1305 16.639
636 212 5 -0.82 3.14826 -1.03623 16.196
637 213 3 0.41 10.5341 9.06541 2.13624
638 213 3 0.41 9.2502 10.1237 2.04546
639 213 5 -0.82 9.48599 9.13003 2.08989
640 214 3 0.41 11.4178 11.862 -15.1344
641 214 3 0.41 12.3729 10.6429 -14.7101
642 214 5 -0.82 11.5118 11.1387 -14.4384
643 215 3 0.41 2.19859 9.89726 -10.3779
644 215 3 0.41 2.62479 11.4843 -10.1345
645 215 5 -0.82 2.88316 10.6262 -10.6272
646 216 3 0.41 0.800762 7.33082 2.77192
647 216 3 0.41 0.0869965 6.8351 4.07209
648 216 5 -0.82 0.882361 6.60054 3.47823
649 217 3 0.41 7.26389 3.43083 -10.0357
650 217 3 0.41 8.51311 3.19923 -9.0015
651 217 5 -0.82 8.29718 3.3752 -9.99158
652 218 3 0.41 6.42769 6.24134 9.69604
653 218 3 0.41 7.14723 7.54569 9.5334
654 218 5 -0.82 7.22118 6.68841 10.0886
655 219 3 0.41 2.87484 5.46178 -4.18842
656 219 3 0.41 4.17113 5.81013 -5.25783
657 219 5 -0.82 3.76436 5.14036 -4.57876
658 220 3 0.41 11.2575 2.60645 16.6583
659 220 3 0.41 -1.36416 1.96394 16.9674
660 220 5 -0.82 12.0106 2.67766 17.2909
661 221 3 0.41 3.51536 0.771296 -13.8163
662 221 3 0.41 5.1983 0.982409 -13.6054
663 221 5 -0.82 4.38958 1.1788 -14.2512
664 222 3 0.41 2.49119 6.09678 -18.5781
665 222 3 0.41 3.90546 5.27717 -18.5795
666 222 5 -0.82 3.12776 5.50846 -19.1735
667 223 3 0.41 10.4084 1.95768 -10.0387
668 223 3 0.41 10.6386 2.23908 -8.42549
669 223 5 -0.82 10.3879 1.5388 -9.09524
670 224 3 0.41 -1.13726 -0.692535 5.30966
671 224 3 0.41 11.9536 0.438701 6.05558
672 224 5 -0.82 -1.33529 -0.320832 6.22979
673 225 3 0.41 2.81858 10.2503 -4.32464
674 225 3 0.41 2.41318 11.6843 -5.1411
675 225 5 -0.82 3.17803 11.0412 -4.90219
676 226 3 0.41 -0.697932 5.49082 16.4107
677 226 3 0.41 -0.879338 4.19902 17.3977
678 226 5 -0.82 -0.185608 4.91384 17.0889
679 227 3 0.41 10.83 7.31406 18.9924
680 227 3 0.41 10.0784 8.6089 19.7657
681 227 5 -0.82 10.0116 7.91281 18.9886
682 228 3 0.41 11.6958 7.56535 -9.44581
683 228 3 0.41 11.548 8.04317 -11.0219
684 228 5 -0.82 11.0168 7.79569 -10.1521
685 229 3 0.41 -1.44234 1.67918 -20.9576
686 229 3 0.41 12.1316 2.36537 -22.3643
687 229 5 -0.82 -1.24001 1.66263 -21.9584
688 230 3 0.41 -0.188841 2.66596 -4.24083
689 230 3 0.41 0.220238 2.10041 -5.74727
690 230 5 -0.82 0.0991413 2.95147 -5.17644
691 231 3 0.41 0.617525 6.27291 -0.995421
692 231 3 0.41 0.00778824 6.7096 0.422324
693 231 5 -0.82 0.155913 7.05836 -0.538112
694 232 3 0.41 0.235065 4.94075 -7.74817
695 232 3 0.41 0.285215 3.83264 -6.71223
696 232 5 -0.82 0.403712 3.9851 -7.71415
697 233 3 0.41 0.963848 5.47135 -3.09969
698 233 3 0.41 0.995596 4.05838 -2.3754
699 233 5 -0.82 1.53409 4.91749 -2.4526
700 234 3 0.41 11.3404 9.74316 -1.6365
701 234 3 0.41 11.6437 10.7778 -2.80007
702 234 5 -0.82 11.1586 9.89959 -2.63982
703 235 3 0.41 9.55611 5.85501 10.7392
704 235 3 0.41 8.60699 4.62727 11.0439
705 235 5 -0.82 9.58938 4.89574 10.9622
706 236 3 0.41 3.30669 6.14154 -0.0778925
707 236 3 0.41 2.43661 5.03746 0.600872
708 236 5 -0.82 3.16194 5.66568 0.82601
709 237 3 0.41 8.65125 11.255 7.69882
710 237 3 0.41 7.2171 11.9226 7.44638
711 237 5 -0.82 7.84166 11.6202 8.19541
712 238 3 0.41 11.2026 5.81909 8.73313
713 238 3 0.41 10.8606 4.52173 7.74449
714 238 5 -0.82 10.5405 5.46585 8.05242
715 239 3 0.41 9.89796 -1.07208 0.348464
716 239 3 0.41 9.56093 11.615 -0.460844
717 239 5 -0.82 9.73287 -1.40881 -0.616677
718 240 3 0.41 5.4481 11.8997 1.80233
719 240 3 0.41 6.65262 10.9783 2.32053
720 240 5 -0.82 6.21316 11.296 1.46715
721 241 3 0.41 4.14156 1.36059 4.7191
722 241 3 0.41 3.01429 0.441925 4.03772
723 241 5 -0.82 3.31039 1.39399 4.09406
724 242 3 0.41 9.97035 2.39202 0.891933
725 242 3 0.41 9.66007 3.90841 0.392705
726 242 5 -0.82 9.648 2.94221 0.0888018
727 243 3 0.41 1.7596 4.45728 -19.49
728 243 3 0.41 0.292672 4.57042 -18.9057
729 243 5 -0.82 0.808622 4.15742 -19.6729
730 244 3 0.41 8.37685 7.45284 23.2504
731 244 3 0.41 8.37772 8.71983 22.2582
732 244 5 -0.82 8.32878 7.70293 22.2811
733 245 3 0.41 3.89505 7.31944 -21.4963
734 245 3 0.41 3.54134 5.85807 -22.0355
735 245 5 -0.82 3.282 6.83023 -22.1054
736 246 3 0.41 12.1938 1.10892 19.4113
737 246 3 0.41 11.4113 1.16021 20.8351
738 246 5 -0.82 11.2942 1.32516 19.8463
739 247 3 0.41 10.2293 11.4985 15.5751
740 247 3 0.41 11.2183 10.5984 14.866
741 247 5 -0.82 10.4423 11.1572 14.6508
742 248 3 0.41 10.0032 8.45455 9.80169
743 248 3 0.41 8.9679 7.71058 10.6642
744 248 5 -0.82 9.93083 7.85902 10.6111
745 249 3 0.41 2.35414 2.17903 -16.4584
746 249 3 0.41 1.83304 1.14587 -15.3767
747 249 5 -0.82 1.99813 1.19088 -16.3772
748 250 3 0.41 -0.0231064 6.30583 21.8911
749 250 3 0.41 -0.722351 5.34367 22.942
750 250 5 -0.82 -0.843428 5.74429 22.0411
751 251 3 0.41 6.98558 1.56848 10.4904
752 251 3 0.41 7.436 3.10574 10.4556