ITEM: TIMESTEP
75000
ITEM: NUMBER OF ATOMS
1360
ITEM: BOX BOUNDS pp pp pp
-1.5000000000000000e+00 1.2500000000000000e+01
-1.5000000000000000e+00 1.2500000000000000e+01
-2.7500000000000000e+01 2.7500000000000000e+01
ITEM: ATOMS id mol type q x y z
1 1 3 0.41 6.77302 12.4469 4.49463
2 1 3 0.41 6.56385 -1.43124 6.13672
3 1 5 -0.82 6.41222 -0.987549 5.22015
4 2 3 0.41 2.72657 8.01025 -14.0737
5 2 3 0.41 1.34269 6.97725 -14.331
6 2 5 -0.82 2.14328 7.47927 -14.7041
7 3 3 0.41 8.08745 0.124954 15.6374
8 3 3 0.41 8.48254 1.70189 15.7249
9 3 5 -0.82 8.81292 0.796316 15.3734
10 4 3 0.41 12.4808 11.8979 -19.4776
11 4 3 0.41 10.9545 12.117 -19.2172
12 4 5 -0.82 11.7024 -1.466 -19.7629
13 5 3 0.41 0.289728 3.40527 -17.2421
14 5 3 0.41 0.479755 4.10955 -15.8229
15 5 5 -0.82 0.0267845 4.19392 -16.7121
16 6 3 0.41 7.4773 12.3984 -22.2849
17 6 3 0.41 6.57915 11.1451 -21.9966
18 6 5 -0.82 6.4921 12.1344 -22.2208
19 7 3 0.41 0.446804 3.50149 -13.354
20 7 3 0.41 1.45547 4.54284 -13.8605
21 7 5 -0.82 0.548625 4.2275 -14.0861
22 8 3 0.41 12.2518 10.9794 17.5079
23 8 3 0.41 -1.3939 9.59435 16.9493
24 8 5 -0.82 -1.41906 10.5945 16.6563
25 9 3 0.41 8.95304 -0.462481 -19.8743
26 9 3 0.41 8.15775 -0.50028 -18.5901
27 9 5 -0.82 8.14572 -0.923673 -19.4315
28 10 3 0.41 7.04485 8.17818 7.36519
29 10 3 0.41 7.59866 8.51124 8.8431
30 10 5 -0.82 7.12274 8.91993 8.07167
31 11 3 0.41 -0.431292 10.2621 -8.96855
32 11 3 0.41 -0.684436 10.6102 -10.5609
33 11 5 -0.82 0.0556518 10.3085 -9.88196
34 12 3 0.41 0.24247 9.39776 -13.4102
35 12 3 0.41 -1.32304 9.54773 -13.2033
36 12 5 -0.82 -0.635894 9.21294 -13.8808
37 13 3 0.41 -1.17228 0.360826 6.62201
38 13 3 0.41 12.3578 -0.759293 5.67161
39 13 5 -0.82 12.032 0.0929761 6.06608
40 14 3 0.41 11.7857 4.65537 -20.3908
41 14 3 0.41 -1.27004 5.20318 -21.4476
42 14 5 -0.82 11.8653 4.69208 -21.4206
43 15 3 0.41 5.54023 4.10337 1.13589
44 15 3 0.41 5.56861 2.76403 0.435633
45 15 5 -0.82 6.1558 3.55094 0.541513
46 16 3 0.41 2.1899 3.7772 10.3692
47 16 3 0.41 1.07629 2.63685 10.6457
48 16 5 -0.82 1.98249 2.77437 10.1914
49 17 3 0.41 2.54902 11.2498 22.3296
50 17 3 0.41 2.59987 9.79665 23.1107
51 17 5 -0.82 2.3393 10.2625 22.2352
52 18 3 0.41 5.81359 0.144284 -19.0434
53 18 3 0.41 5.21632 -1.41234 -19.1185
54 18 5 -0.82 5.24633 -0.536638 -19.554
55 19 3 0.41 5.17837 9.71577 4.99087
56 19 3 0.41 6.75703 9.71479 5.29067
57 19 5 -0.82 5.91289 10.1411 5.5804
58 20 3 0.41 1.80169 8.27964 -19.9033
59 20 3 0.41 2.65465 7.61559 -18.6576
60 20 5 -0.82 2.75411 8.06199 -19.5448
61 21 3 0.41 8.2803 2.922 17.5658
62 21 3 0.41 6.99857 2.65988 16.6533
63 21 5 -0.82 7.9893 2.86131 16.63
64 22 3 0.41 5.1521 -0.996704 -16.7763
65 22 3 0.41 4.42037 11.4137 -17.0613
66 22 5 -0.82 5.22201 12.0941 -17.2829
67 23 3 0.41 11.2671 1.47668 -18.1314
68 23 3 0.41 11.7269 0.426383 -19.2641
69 23 5 -0.82 11.0908 1.23781 -19.1429
70 24 3 0.41 2.72215 4.45416 -19.8946
71 24 3 0.41 1.29601 3.95191 -19.5797
72 24 5 -0.82 1.75764 4.80135 -19.9432
73 25 3 0.41 3.97508 9.21791 -16.7127
74 25 3 0.41 2.63756 10.2004 -16.8999
75 25 5 -0.82 3.62494 10.0719 -17.1664
76 26 3 0.41 6.87245 11.4166 -17.1267
77 26 3 0.41 8.03245 10.9476 -16.0483
78 26 5 -0.82 7.69848 10.8489 -16.974
79 27 3 0.41 9.70866 9.83339 -9.20567
80 27 3 0.41 10.9909 9.74902 -10.0288
81 27 5 -0.82 10.575 9.3777 -9.15405
82 28 3 0.41 8.86345 -1.35971 -12.8846
83 28 3 0.41 9.08994 0.221556 -12.4018
84 28 5 -0.82 9.19696 -0.433894 -13.2085
85 29 3 0.41 5.26396 9.48201 22.9786
86 29 3 0.41 6.51391 9.23723 21.8482
87 29 5 -0.82 5.48836 9.3536 21.9768
88 30 3 0.41 2.97796 -0.195862 6.857
89 30 3 0.41 4.05718 -1.24297 6.35283
90 30 5 -0.82 3.42121 -0.504113 5.98716
91 31 3 0.41 5.1565 6.03728 -17.0571
92 31 3 0.41 6.42146 5.51765 -17.8964
93 31 5 -0.82 5.84493 5.29203 -17.1068
94 32 3 0.41 1.09655 8.90868 -15.5312
95 32 3 0.41 0.926462 8.39861 -17.0434
96 32 5 -0.82 1.00465 9.22468 -16.485
97 33 3 0.41 1.71937 9.37516 -11.7079
98 33 3 0.41 2.33488 10.2561 -12.9132
99 33 5 -0.82 1.4753 9.96844 -12.4718
100 34 3 0.41 -0.634571 6.71554 7.29066
101 34 3 0.41 -1.46446 6.14488 6.1274
102 34 5 -0.82 -1.23062 7.0427 6.53234
103 35 3 0.41 1.58372 11.4463 16.514
104 35 3 0.41 1.45792 12.1113 15.0103
105 35 5 -0.82 1.69987 12.2893 15.957
106 36 3 0.41 6.19321 -0.582429 -5.97709
107 36 3 0.41 7.84207 -0.784576 -5.9451
108 36 5 -0.82 7.05759 -0.537382 -6.51964
109 37 3 0.41 10.501 7.72075 21.404
110 37 3 0.41 10.0015 7.25443 22.8315
111 37 5 -0.82 9.69763 7.50542 21.9036
112 38 3 0.41 6.00115 5.38127 -13.0424
113 38 3 0.41 6.9041 4.95469 -14.1607
114 38 5 -0.82 6.09825 4.57483 -13.6216
115 39 3 0.41 9.44057 0.308029 -16.5163
116 39 3 0.41 7.95205 -0.00167534 -16.1797
117 39 5 -0.82 8.48346 0.436433 -16.9192
118 40 3 0.41 11.3484 3.14976 -21.6979
119 40 3 0.41 10.1402 2.16862 -21.7245
120 40 5 -0.82 11.0571 2.30424 -22.1336
121 41 3 0.41 3.18647 7.08296 -15.7646
122 41 3 0.41 4.53808 7.70639 -16.1441
123 41 5 -0.82 3.86064 7.11246 -16.5287
124 42 3 0.41 10.0316 4.89712 7.85609
125 42 3 0.41 10.1284 3.43413 7.40395
126 42 5 -0.82 10.262 4.00618 8.25248
127 43 3 0.41 5.54837 -1.37655 19.318
128 43 3 0.41 6.80012 -0.439841 19.1614
129 43 5 -0.82 6.50561 -1.36342 18.9228
130 44 3 0.41 10.6111 11.5169 -21.0774
131 44 3 0.41 9.39016 10.3946 -21.0777
132 44 5 -0.82 10.1821 10.7612 -21.6362
133 45 3 0.41 12.3259 5.55311 3.05075
134 45 3 0.41 11.2394 4.33737 2.68534
135 45 5 -0.82 11.4237 5.32639 2.52503
136 46 3 0.41 2.28895 -0.624245 23.1348
137 46 3 0.41 3.65938 -0.0696507 22.5315
138 46 5 -0.82 2.84693 -0.600996 22.2855
139 47 3 0.41 8.88129 8.71928 5.62131
140 47 3 0.41 8.88951 9.38845 4.19094
141 47 5 -0.82 8.25274 8.90316 4.82771
142 48 3 0.41 1.94691 9.7335 10.8785
143 48 3 0.41 1.84614 8.14861 10.7242
144 48 5 -0.82 1.66688 8.91373 11.3618
145 49 3 0.41 10.8823 6.27536 -4.41461
146 49 3 0.41 10.6856 4.76025 -4.29762
147 49 5 -0.82 10.3423 5.61126 -3.81379
148 50 3 0.41 -1.30044 5.88013 15.499
149 50 3 0.41 11.3834 5.3848 16.3895
150 50 5 -0.82 11.9359 6.23777 16.0584
151 51 3 0.41 9.22099 3.33919 -0.903071
152 51 3 0.41 7.8166 3.28264 -0.139099
153 51 5 -0.82 8.80386 3.19816 -0.00941257
154 52 3 0.41 11.4247 9.78525 -15.5216
155 52 3 0.41 10.8825 8.59213 -16.5581
156 52 5 -0.82 11.6412 9.2646 -16.3907
157 53 3 0.41 4.33765 10.0303 18.4375
158 53 3 0.41 5.26741 9.9487 17.0775
159 53 5 -0.82 4.37125 9.75184 17.4823
160 54 3 0.41 3.92113 7.78972 11.0276
161 54 3 0.41 4.96137 7.70192 12.1606
162 54 5 -0.82 4.6701 8.32835 11.4152
163 55 3 0.41 4.48177 6.05078 -0.416907
164 55 3 0.41 2.86725 5.65336 -0.687751
165 55 5 -0.82 3.82845 5.50664 -1.02432
166 56 3 0.41 11.199 5.38453 0.960513
167 56 3 0.41 10.5906 4.17232 0.0036537
168 56 5 -0.82 10.8283 5.19233 -0.00402025
169 57 3 0.41 -0.436871 8.45219 -19.9281
170 57 3 0.41 -0.654955 9.03072 -21.4196
171 57 5 -0.82 -0.0130607 8.50808 -20.8197
172 58 3 0.41 5.20454 1.14273 -15.6145
173 58 3 0.41 4.38316 -0.0997562 -15.0792
174 58 5 -0.82 4.77618 0.288646 -15.9479
175 59 3 0.41 1.75162 12.2809 -5.45302
176 59 3 0.41 0.260993 -1.44607 -5.93777
177 59 5 -0.82 1.22561 -1.44734 -6.28123
178 60 3 0.41 9.30723 8.74075 -3.12607
179 60 3 0.41 7.92057 8.99878 -2.35571
180 60 5 -0.82 8.27822 8.75702 -3.24131
181 61 3 0.41 2.65885 2.75693 16.5748
182 61 3 0.41 3.09639 4.14619 17.1689
183 61 5 -0.82 2.49529 3.39005 17.3332
184 62 3 0.41 6.32554 2.86441 -10.5541
185 62 3 0.41 6.4742 2.14537 -9.06081
186 62 5 -0.82 5.82561 2.68673 -9.65939
187 63 3 0.41 2.71556 7.27731 16.4115
188 63 3 0.41 1.14716 7.36701 16.9373
189 63 5 -0.82 1.85428 6.72987 16.7355
190 64 3 0.41 1.86265 6.05687 7.87396
191 64 3 0.41 1.94372 7.03057 6.56641
192 64 5 -0.82 1.66441 6.08161 6.87464
193 65 3 0.41 -1.15846 7.7078 1.65564
194 65 3 0.41 12.0973 8.57166 0.477352
195 65 5 -0.82 -1.34332 7.76046 0.674532
196 66 3 0.41 -1.06658 -0.314005 -0.265071
197 66 3 0.41 -0.60903 -0.35986 1.27126
198 66 5 -0.82 -0.222269 -0.499413 0.323631
199 67 3 0.41 2.82324 9.94682 20.1434
200 67 3 0.41 4.31757 9.78596 20.7467
201 67 5 -0.82 3.79434 10.1459 19.9389
202 68 3 0.41 12.1456 0.54891 20.9008
203 68 3 0.41 -1.39135 0.958271 19.4373
204 68 5 -0.82 -1.15223 0.350083 20.221
205 69 3 0.41 9.14838 -1.33167 -9.82882
206 69 3 0.41 9.84779 11.5405 -10.7481
207 69 5 -0.82 8.94002 11.947 -10.5238
208 70 3 0.41 -0.0871888 2.28381 -5.87361
209 70 3 0.41 0.467499 3.56719 -5.02609
210 70 5 -0.82 -0.192726 3.2739 -5.73024
211 71 3 0.41 1.13103 3.18001 7.46209
212 71 3 0.41 0.00125023 4.32912 7.28032
213 71 5 -0.82 0.13732 3.3192 7.42574
214 72 3 0.41 1.09855 5.49288 11.7101
215 72 3 0.41 1.76736 4.55051 12.7805
216 72 5 -0.82 0.875455 4.76372 12.3294
217 73 3 0.41 4.20993 -0.121679 -6.68166
218 73 3 0.41 3.6871 1.34884 -7.0235
219 73 5 -0.82 4.31757 0.594471 -7.34708
220 74 3 0.41 9.38937 7.35704 7.64761
221 74 3 0.41 8.3966 6.24839 8.32516
222 74 5 -0.82 9.09201 6.38988 7.59352
223 75 3 0.41 11.4548 6.51491 -9.83709
224 75 3 0.41 10.9303 5.74677 -11.0786
225 75 5 -0.82 10.5861 6.28766 -10.3161
226 76 3 0.41 4.55078 0.453326 -9.22466
227 76 3 0.41 3.61604 1.33792 -10.128
228 76 5 -0.82 3.98175 0.382422 -10.0005
229 77 3 0.41 4.8118 -0.921115 8.92504
230 77 3 0.41 5.68488 -1.22591 10.3343
231 77 5 -0.82 4.78499 -0.824147 9.93851
232 78 3 0.41 9.99658 6.59243 -16.409
233 78 3 0.41 10.8251 5.28334 -15.8874
234 78 5 -0.82 10.776 5.95304 -16.6918
235 79 3 0.41 1.49981 10.5866 9.04462
236 79 3 0.41 1.60977 12.2333 9.14413
237 79 5 -0.82 2.00411 11.3705 9.57228
238 80 3 0.41 6.5702 1.2999 -13.8659
239 80 3 0.41 6.1892 0.365839 -12.5689
240 80 5 -0.82 5.94859 1.22239 -13.0686
241 81 3 0.41 10.756 -1.26753 0.456882
242 81 3 0.41 10.9067 -1.2204 1.964
243 81 5 -0.82 11.0129 12.1085 1.22136
244 82 3 0.41 11.7884 6.46558 8.76649
245 82 3 0.41 12.1681 7.53453 9.80624
246 82 5 -0.82 11.3462 7.08316 9.3941
247 83 3 0.41 11.2045 8.17192 6.36685
248 83 3 0.41 10.6516 9.61481 6.66071
249 83 5 -0.82 10.3324 8.69155 6.42983
250 84 3 0.41 -0.956404 0.928047 11.3637
251 84 3 0.41 -0.996032 1.69534 9.97031
252 84 5 -0.82 -0.662359 1.73854 10.921
253 85 3 0.41 5.93801 6.65186 22.0579
254 85 3 0.41 7.05858 6.79608 23.1667
255 85 5 -0.82 6.92318 6.74555 22.1552
256 86 3 0.41 11.0515 3.31349 -12.5822
257 86 3 0.41 9.6067 3.4879 -11.9942
258 86 5 -0.82 10.4701 3.99495 -12.1048
259 87 3 0.41 3.844 1.43071 2.42682
260 87 3 0.41 2.36614 1.79842 2.79361
261 87 5 -0.82 3.22254 1.45487 3.26546
262 88 3 0.41 8.40786 8.69887 22.2421
263 88 3 0.41 8.12977 10.0708 23.1344
264 88 5 -0.82 8.06206 9.65729 22.1814
265 89 3 0.41 3.77429 8.02962 -7.41484
266 89 3 0.41 2.50607 8.74363 -6.73217
267 89 5 -0.82 3.32498 8.96125 -7.23607
268 90 3 0.41 12.1129 4.33608 -13.7167
269 90 3 0.41 -1.32043 4.56744 -15.1935
270 90 5 -0.82 11.8149 4.34687 -14.6765
271 91 3 0.41 0.80176 1.27981 6.10033
272 91 3 0.41 1.84577 0.34441 5.29722
273 91 5 -0.82 0.846015 0.47301 5.47801
274 92 3 0.41 9.30861 2.68614 5.48267
275 92 3 0.41 10.7089 1.99428 5.73364
276 92 5 -0.82 10.1298 2.72797 6.06197
277 93 3 0.41 7.4988 10.0165 20.6239
278 93 3 0.41 7.35016 11.1065 19.4775
279 93 5 -0.82 7.35016 10.1117 19.6064
280 94 3 0.41 0.538699 5.55908 -4.07272
281 94 3 0.41 -0.467889 6.34721 -3.17985
282 94 5 -0.82 -0.157444 6.30288 -4.15959
283 95 3 0.41 2.68486 8.08884 12.81
284 95 3 0.41 3.54524 6.9629 13.5566
285 95 5 -0.82 2.64216 7.46808 13.5965
286 96 3 0.41 6.08938 9.86538 9.13927
287 96 3 0.41 4.55898 9.66325 9.37487
288 96 5 -0.82 5.2757 10.3247 9.63176
289 97 3 0.41 9.99915 4.36768 22.0236
290 97 3 0.41 9.17739 4.89264 23.3222
291 97 5 -0.82 9.07191 4.61474 22.3475
292 98 3 0.41 9.08592 10.6847 -18.0834
293 98 3 0.41 10.5385 10.5379 -17.4008
294 98 5 -0.82 10.0664 10.7958 -18.2745
295 99 3 0.41 6.26712 9.02466 14.1733
296 99 3 0.41 4.91254 9.97964 14.1903
297 99 5 -0.82 5.84022 9.85231 13.7783
298 100 3 0.41 2.02719 11.8495 3.2148
299 100 3 0.41 0.628219 11.1014 3.342
300 100 5 -0.82 1.55473 11.1944 3.82147
301 101 3 0.41 7.78974 10.4109 -0.103811
302 101 3 0.41 7.76543 11.3209 -1.51034
303 101 5 -0.82 8.33727 10.8106 -0.830709
304 102 3 0.41 3.58812 11.9376 -20.8414
305 102 3 0.41 4.7856 12.0667 -21.8846
306 102 5 -0.82 3.79739 12.1858 -21.8087
307 103 3 0.41 2.6562 9.08372 6.47864
308 103 3 0.41 3.17374 8.56355 5.00066
309 103 5 -0.82 2.61547 8.34157 5.82131
310 104 3 0.41 6.13209 12.348 0.265706
311 104 3 0.41 7.17796 -0.705032 -0.388068
312 104 5 -0.82 6.60369 -0.770493 0.434927
313 105 3 0.41 11.2223 3.30417 13.6266
314 105 3 0.41 12.2149 2.2004 13.9605
315 105 5 -0.82 11.1877 2.31546 13.8879
316 106 3 0.41 1.63774 6.74985 -5.78325
317 106 3 0.41 0.944596 8.2339 -5.93095
318 106 5 -0.82 1.3019 7.42216 -6.49348
319 107 3 0.41 12.4153 2.71253 3.6011
320 107 3 0.41 11.6016 1.45586 3.10135
321 107 5 -0.82 11.5314 2.46177 3.15391
322 108 3 0.41 -1.16682 -0.439896 -17.4093
323 108 3 0.41 -0.382412 0.780064 -17.0899
324 108 5 -0.82 -0.753859 0.34295 -17.9035
325 109 3 0.41 8.57755 0.0489692 -21.907
326 109 3 0.41 9.83089 -0.779344 -22.4494
327 109 5 -0.82 8.82092 -0.810447 -22.4541
328 110 3 0.41 0.122442 0.312031 -3.77059
329 110 3 0.41 1.359 1.33225 -3.644
330 110 5 -0.82 0.729619 0.930268 -4.2969
331 111 3 0.41 -1.18283 3.44798 -3.52256
332 111 3 0.41 11.932 3.26709 -2.28834
333 111 5 -0.82 -1.08138 3.37795 -2.53585
334 112 3 0.41 8.65671 4.45816 -15.9317
335 112 3 0.41 7.38861 5.33335 -16.2773
336 112 5 -0.82 8.07347 5.19629 -15.501
337 113 3 0.41 1.35331 0.758889 18.7456
338 113 3 0.41 2.74069 1.34384 19.5189
339 113 5 -0.82 1.8017 0.921914 19.6385
340 114 3 0.41 5.21281 6.91489 -20.1455
341 114 3 0.41 4.9906 8.19659 -19.358
342 114 5 -0.82 5.54064 7.34108 -19.3029
343 115 3 0.41 11.3029 2.63872 -4.88894
344 115 3 0.41 11.8875 3.80237 -5.79194
345 115 5 -0.82 11.1603 3.58053 -5.1402
346 116 3 0.41 7.03544 -1.19811 17.0339
347 116 3 0.41 5.75244 -0.578242 16.428
348 116 5 -0.82 6.71659 -0.768217 16.1986
349 117 3 0.41 11.0552 3.66699 -18.365
350 117 3 0.41 11.4393 5.23469 -18.2172
351 117 5 -0.82 11.5022 4.48269 -18.8583
352 118 3 0.41 0.145105 11.9714 -0.161225
353 118 3 0.41 1.19195 10.6545 -0.0235789
354 118 5 -0.82 0.403483 11.0547 -0.555189
355 119 3 0.41 6.9985 10.1146 -7.20868
356 119 3 0.41 7.13276 9.51737 -8.72946
357 119 5 -0.82 7.08783 9.23331 -7.76607
358 120 3 0.41 8.56883 4.77416 14.2546
359 120 3 0.41 8.69344 5.71933 15.6344
360 120 5 -0.82 9.06729 5.55724 14.6773
361 121 3 0.41 3.55431 6.41221 -11.2732
362 121 3 0.41 3.93768 7.82235 -11.7275
363 121 5 -0.82 3.2755 7.1119 -11.9277
364 122 3 0.41 9.58319 9.07786 14.5043
365 122 3 0.41 9.93403 8.76176 13.1166
366 122 5 -0.82 9.27069 9.33936 13.6087
367 123 3 0.41 -1.13832 -1.10123 -2.05822
368 123 3 0.41 0.356858 12.2293 -2.3556
369 123 5 -0.82 -0.309741 -1.08162 -2.69028
370 124 3 0.41 8.22589 8.6736 1.90879
371 124 3 0.41 6.71034 9.0155 2.17623
372 124 5 -0.82 7.45938 9.11202 1.49466
373 125 3 0.41 3.92074 0.246168 -22.078
374 125 3 0.41 3.039 1.23499 -21.1621
375 125 5 -0.82 3.22497 1.00373 -22.1473
376 126 3 0.41 11.6694 1.20734 -12.3284
377 126 3 0.41 -1.1049 1.47148 -13.2988
378 126 5 -0.82 11.9954 1.88251 -13.0866
379 127 3 0.41 -0.0439811 9.06194 10.8842
380 127 3 0.41 12.4822 9.65161 11.3616
381 127 5 -0.82 -1.01945 8.79775 11.0908
382 128 3 0.41 6.45226 5.82171 9.26588
383 128 3 0.41 7.0776 6.66446 10.4738
384 128 5 -0.82 7.20748 6.45986 9.49367
385 129 3 0.41 11.0111 7.02603 12.5805
386 129 3 0.41 10.6641 7.74214 11.2669
387 129 5 -0.82 10.2032 7.28167 12.0513
388 130 3 0.41 0.162432 -1.08423 -9.05145
389 130 3 0.41 -0.515179 11.9027 -8.01093
390 130 5 -0.82 -0.725377 -1.25491 -8.63154
391 131 3 0.41 3.52408 10.0935 -19.9906
392 131 3 0.41 4.36834 10.3046 -18.7433
393 131 5 -0.82 4.5114 10.2349 -19.7975
394 132 3 0.41 5.43575 0.450957 0.571562
395 132 3 0.41 4.03578 1.34422 0.341676
396 132 5 -0.82 4.81992 1.16333 0.966033
397 133 3 0.41 0.212313 2.64788 3.31294
398 133 3 0.41 0.788338 3.49777 4.55042
399 133 5 -0.82 -0.0596169 3.00755 4.24434
400 134 3 0.41 5.26167 7.27071 1.56006
401 134 3 0.41 6.34936 6.29278 1.16221
402 134 5 -0.82 5.35332 6.38649 1.13686
403 135 3 0.41 2.78739 4.69528 -15.4163
404 135 3 0.41 3.15811 5.39003 -16.7916
405 135 5 -0.82 2.79906 4.51695 -16.4255
406 136 3 0.41 11.2177 0.613166 12.8956
407 136 3 0.41 11.2892 -0.380757 11.6921
408 136 5 -0.82 11.7753 -0.156063 12.5649
409 137 3 0.41 10.8661 10.459 3.87506
410 137 3 0.41 10.0159 10.901 2.65303
411 137 5 -0.82 10.2845 10.0303 3.16553
412 138 3 0.41 0.378235 9.66296 7.62108
413 138 3 0.41 -0.808787 10.0284 8.49637
414 138 5 -0.82 0.17893 9.6989 8.60141
415 139 3 0.41 3.92787 6.3025 22.9
416 139 3 0.41 3.80976 5.22573 21.7635
417 139 5 -0.82 4.33923 6.02439 22.0715
418 140 3 0.41 1.61974 10.0962 -9.86813
419 140 3 0.41 2.7382 9.34881 -8.80193
420 140 5 -0.82 2.56102 9.67582 -9.72173
421 141 3 0.41 6.34121 9.04986 -22.0418
422 141 3 0.41 5.19783 9.99031 -21.1888
423 141 5 -0.82 5.51451 9.64727 -22.1125
424 142 3 0.41 4.51964 8.77832 -13.4967
425 142 3 0.41 4.83813 10.1689 -14.209
426 142 5 -0.82 4.46443 9.22006 -14.3655
427 143 3 0.41 10.2519 12.1078 16.053
428 143 3 0.41 9.21876 11.8819 14.8181
429 143 5 -0.82 10.2233 12.0918 15.0296
430 144 3 0.41 6.14793 8.11129 -17.6053
431 144 3 0.41 6.43515 9.47469 -16.8138
432 144 5 -0.82 6.04037 8.52149 -16.7201
433 145 3 0.41 -0.836977 9.94717 -18.5167
434 145 3 0.41 -0.909196 11.525 -17.8302
435 145 5 -0.82 -0.612746 10.9161 -18.6106
436 146 3 0.41 2.18446 1.60484 -16.9356
437 146 3 0.41 2.3587 3.25354 -17.1756
438 146 5 -0.82 2.03957 2.37334 -17.6493
439 147 3 0.41 11.4388 10.6733 0.244145
440 147 3 0.41 10.3215 10.2792 -0.690889
441 147 5 -0.82 11.1693 9.86472 -0.365003
442 148 3 0.41 4.08179 -0.623661 18.0316
443 148 3 0.41 3.11598 -0.694738 16.7528
444 148 5 -0.82 3.92183 -0.291189 17.0398
445 149 3 0.41 0.310359 4.09367 -1.75538
446 149 3 0.41 1.69388 4.69933 -2.55588
447 149 5 -0.82 1.21304 4.57627 -1.66543
448 150 3 0.41 3.48535 5.76525 -13.3844
449 150 3 0.41 4.149 4.44288 -13.5764
450 150 5 -0.82 3.22885 4.82335 -13.6289
451 151 3 0.41 9.0026 2.83108 13.6716
452 151 3 0.41 8.76972 3.83078 12.5133
453 151 5 -0.82 8.28478 3.39266 13.3278
454 152 3 0.41 7.04326 3.84411 7.05921
455 152 3 0.41 7.90798 4.92645 6.16408
456 152 5 -0.82 7.06123 4.39394 6.21527
457 153 3 0.41 -1.29693 11.8371 15.478
458 153 3 0.41 -1.3099 -0.561115 15.5157
459 153 5 -0.82 -0.947453 -1.34364 15
460 154 3 0.41 4.84322 6.41628 -22.1905
461 154 3 0.41 5.9099 5.20058 -22.1402
462 154 5 -0.82 5.81647 6.203 -22.0322
463 155 3 0.41 12.3363 7.62607 18.5459
464 155 3 0.41 -1.47527 7.39164 16.9825
465 155 5 -0.82 -1.23476 8.03427 17.701
466 156 3 0.41 0.730639 6.05568 3.62287
467 156 3 0.41 -0.0991826 5.1649 2.71739
468 156 5 -0.82 -0.236572 5.72802 3.51837
469 157 3 0.41 9.00793 -0.914486 23.4143
470 157 3 0.41 7.8897 -1.37824 22.4198
471 157 5 -0.82 8.88234 -1.40979 22.5259
472 158 3 0.41 9.83824 12.2763 -7.7118
473 158 3 0.41 8.9875 11.1486 -6.6156
474 158 5 -0.82 9.17655 11.4794 -7.56469
475 159 3 0.41 4.13859 9.54934 -10.8019
476 159 3 0.41 5.67433 9.8375 -11.1063
477 159 5 -0.82 4.88533 9.16666 -11.3159
478 160 3 0.41 7.25335 4.51303 11.3094
479 160 3 0.41 6.52623 3.0941 11.0859
480 160 5 -0.82 6.53141 4.05949 10.7548
481 161 3 0.41 8.10899 0.367796 -2.60399
482 161 3 0.41 8.74999 0.450632 -1.13153
483 161 5 -0.82 7.87478 0.272574 -1.63512
484 162 3 0.41 4.85541 5.96098 -5.68947
485 162 3 0.41 5.00338 7.55836 -5.87545
486 162 5 -0.82 4.52967 6.74486 -6.27796
487 163 3 0.41 8.9454 10.3054 -12.6449
488 163 3 0.41 7.67419 10.0302 -13.7019
489 163 5 -0.82 8.4087 10.7341 -13.4339
490 164 3 0.41 9.19667 11.4542 -2.47101
491 164 3 0.41 10.6568 12.0623 -2.46191
492 164 5 -0.82 10.0653 11.4746 -3.04105
493 165 3 0.41 5.19914 4.86742 17.3078
494 165 3 0.41 4.97392 5.56733 18.7441
495 165 5 -0.82 5.14298 4.68255 18.3173
496 166 3 0.41 8.05236 10.8756 16.8883
497 166 3 0.41 7.48433 9.7763 17.8214
498 166 5 -0.82 7.38988 10.1166 16.8635
499 167 3 0.41 8.95829 6.51161 -14.2636
500 167 3 0.41 9.32904 5.38505 -13.1367
501 167 5 -0.82 9.33867 6.39455 -13.3232
502 168 3 0.41 2.06937 -1.37913 -8.18198
503 168 3 0.41 2.66336 -0.392787 -9.3238
504 168 5 -0.82 1.83972 -1.01421 -9.12449
505 169 3 0.41 -1.04487 9.4897 2.43308
506 169 3 0.41 -1.39458 10.9512 1.81691
507 169 5 -0.82 -0.629168 10.3832 2.24215
508 170 3 0.41 7.50485 4.33293 -10.973
509 170 3 0.41 7.15385 3.48008 -12.3118
510 170 5 -0.82 7.72527 3.51211 -11.486
511 171 3 0.41 0.328101 -0.441318 14.2341
512 171 3 0.41 0.942455 -0.234575 12.8209
513 171 5 -0.82 0.872701 0.243508 13.6959
514 172 3 0.41 11.438 11.1889 19.9121
515 172 3 0.41 12.4316 12.3924 19.4838
516 172 5 -0.82 12.0256 11.5451 19.166
517 173 3 0.41 8.85258 0.846706 6.55793
518 173 3 0.41 10.2674 0.207305 7.01146
519 173 5 -0.82 9.25753 0.00310206 6.97894
520 174 3 0.41 10.0691 3.12194 20.0886
521 174 3 0.41 8.55482 3.15522 19.8272
522 174 5 -0.82 9.38166 2.76241 19.4329
523 175 3 0.41 7.3764 0.723456 4.83078
524 175 3 0.41 8.30611 1.92287 4.19143
525 175 5 -0.82 8.16268 1.34941 5.0025
526 176 3 0.41 8.57157 5.73851 -2.97226
527 176 3 0.41 7.86889 6.55403 -1.91023
528 176 5 -0.82 7.79788 5.63466 -2.35701
529 177 3 0.41 7.30156 12.3039 2.37356
530 177 3 0.41 7.77816 10.9411 2.99731
531 177 5 -0.82 7.94689 11.943 3.07566
532 178 3 0.41 9.58423 1.32856 -20.1663
533 178 3 0.41 8.4312 2.27706 -20.4125
534 178 5 -0.82 8.91358 1.54149 -20.8867
535 179 3 0.41 0.146125 3.00013 -21.1956
536 179 3 0.41 1.45984 3.72434 -21.7521
537 179 5 -0.82 0.620889 3.16323 -22.0977
538 180 3 0.41 5.50566 6.14606 6.98827
539 180 3 0.41 4.95922 6.88653 5.6261
540 180 5 -0.82 5.28217 7.06178 6.57162
541 181 3 0.41 0.159907 -0.804766 -12.8074
542 181 3 0.41 -1.40398 -1.14608 -13.0976
543 181 5 -0.82 -0.635516 -0.609985 -13.4855
544 182 3 0.41 0.489171 0.483724 -20.8061
545 182 3 0.41 0.35661 1.6707 -21.9843
546 182 5 -0.82 0.148105 0.698147 -21.7661
547 183 3 0.41 11.2006 10.9702 -13.9158
548 183 3 0.41 9.74676 10.9433 -14.306
549 183 5 -0.82 10.6564 11.1434 -14.73
550 184 3 0.41 5.19981 11.0188 6.8066
551 184 3 0.41 4.25182 10.9863 8.08709
552 184 5 -0.82 4.47903 11.5572 7.26914
553 185 3 0.41 6.76889 8.41626 -15.3229
554 185 3 0.41 6.96251 7.55708 -14.0043
555 185 5 -0.82 7.32398 8.42372 -14.4659
556 186 3 0.41 5.05698 4.06594 3.18215
557 186 3 0.41 6.28337 4.30618 4.16838
558 186 5 -0.82 6.01452 3.80831 3.34061
559 187 3 0.41 2.57463 4.17542 2.42618
560 187 3 0.41 3.70108 5.19815 1.94187
561 187 5 -0.82 3.50469 4.21648 1.99236
562 188 3 0.41 -0.270146 11.2749 -22.5169
563 188 3 0.41 12.0722 10.9866 -22.1193
564 188 5 -0.82 -0.978047 10.5873 -22.2141
565 189 3 0.41 0.78914 -0.681869 16.7529
566 189 3 0.41 0.120009 0.788083 17.0094
567 189 5 -0.82 0.376412 -0.0618706 17.5214
568 190 3 0.41 -0.164827 2.9519 15.623
569 190 3 0.41 0.760845 3.28307 16.7882
570 190 5 -0.82 -0.0896791 2.78997 16.62
571 191 3 0.41 1.34267 0.673052 10.3943
572 191 3 0.41 2.44792 0.296053 11.5399
573 191 5 -0.82 1.53197 -0.0159242 11.1259
574 192 3 0.41 9.20792 9.52596 19.4252
575 192 3 0.41 10.6931 8.65256 19.4518
576 192 5 -0.82 9.95042 9.11325 18.8538
577 193 3 0.41 7.33946 -1.45777 10.7946
578 193 3 0.41 7.11121 12.2723 12.4744
579 193 5 -0.82 6.6888 12.2063 11.529
580 194 3 0.41 4.04772 2.80225 18.36
581 194 3 0.41 5.13793 1.86099 19.0236
582 194 5 -0.82 4.20528 2.26079 19.1873
583 195 3 0.41 4.10741 5.24225 8.6807
584 195 3 0.41 4.88082 3.87115 8.47996
585 195 5 -0.82 4.99041 4.8308 8.34243
586 196 3 0.41 8.63825 4.94463 -21.3683
587 196 3 0.41 10.2542 4.87716 -21.8411
588 196 5 -0.82 9.31373 5.2329 -22.1133
589 197 3 0.41 -1.43453 7.29499 3.90683
590 197 3 0.41 -0.766445 8.74673 4.02187
591 197 5 -0.82 -1.43376 8.20765 3.46146
592 198 3 0.41 3.46856 2.34765 -15.3503
593 198 3 0.41 2.85257 2.30901 -13.8606
594 198 5 -0.82 2.61285 2.09311 -14.7795
595 199 3 0.41 5.63274 12.0956 -12.7627
596 199 3 0.41 4.39714 12.3048 -13.8434
597 199 5 -0.82 5.2794 11.8396 -13.7308
598 200 3 0.41 -1.26843 6.8893 -0.999147
599 200 3 0.41 12.0551 5.62715 -1.56855
600 200 5 -0.82 -1.39962 6.44212 -1.87004
601 201 3 0.41 9.51651 2.82923 10.0423
602 201 3 0.41 9.4744 1.27899 10.8123
603 201 5 -0.82 9.67652 1.80038 9.94439
604 202 3 0.41 8.15825 9.3093 -10.8102
605 202 3 0.41 7.76778 10.7906 -10.5535
606 202 5 -0.82 7.41675 9.8631 -10.3962
607 203 3 0.41 1.75215 11.3558 5.44694
608 203 3 0.41 2.71533 11.4921 6.67903
609 203 5 -0.82 1.81795 11.1479 6.42641
610 204 3 0.41 0.370601 0.087616 -18.9338
611 204 3 0.41 1.9017 -0.0190701 -18.668
612 204 5 -0.82 1.22393 -0.169143 -19.4479
613 205 3 0.41 10.5997 5.3555 -7.60396
614 205 3 0.41 10.3888 5.14577 -9.13237
615 205 5 -0.82 10.2633 4.63953 -8.27297
616 206 3 0.41 5.17533 5.42907 15.2649
617 206 3 0.41 5.69862 3.91016 15.3812
618 206 5 -0.82 5.77861 4.80516 15.7838
619 207 3 0.41 2.84981 12.4577 -2.36606
620 207 3 0.41 2.80032 0.0137669 -2.22058
621 207 5 -0.82 2.84026 -0.844295 -1.64271
622 208 3 0.41 0.851488 10.4789 14.036
623 208 3 0.41 0.557817 11.1253 12.6287
624 208 5 -0.82 1.22389 11.1973 13.394
625 209 3 0.41 1.90056 3.29934 -10.2455
626 209 3 0.41 2.41678 4.44731 -11.2581
627 209 5 -0.82 1.58812 4.03752 -10.8531
628 210 3 0.41 8.00966 6.23117 13.3088
629 210 3 0.41 8.64105 6.71559 11.9966
630 210 5 -0.82 7.67089 6.59129 12.4091
631 211 3 0.41 9.02434 12.4725 5.82986
632 211 3 0.41 10.0885 11.5223 6.57864
633 211 5 -0.82 9.60359 11.6362 5.68952
634 212 3 0.41 7.29347 12.2371 14.8831
635 212 3 0.41 7.44599 11.0246 13.7985
636 212 5 -0.82 7.65623 11.9724 13.9823
637 213 3 0.41 3.65909 1.67424 -2.35923
638 213 3 0.41 2.68638 2.78072 -2.97515
639 213 5 -0.82 2.93527 1.80438 -3.02507
640 214 3 0.41 5.35853 4.71218 -19.4956
641 214 3 0.41 4.30563 3.42807 -19.3781
642 214 5 -0.82 4.4629 4.3582 -19.8199
643 215 3 0.41 11.9027 7.84449 -2.52997
644 215 3 0.41 11.4382 9.26349 -2.23976
645 215 5 -0.82 11.0995 8.48379 -2.76075
646 216 3 0.41 4.31408 8.07763 7.56529
647 216 3 0.41 3.56459 7.69213 8.92629
648 216 5 -0.82 3.80183 8.49075 8.36435
649 217 3 0.41 8.65432 6.27044 -10.5075
650 217 3 0.41 7.48301 5.68226 -9.42229
651 217 5 -0.82 7.7434 5.89108 -10.4124
652 218 3 0.41 7.51448 8.87897 15.9741
653 218 3 0.41 8.23503 7.69749 15.3349
654 218 5 -0.82 7.3449 8.12551 15.2989
655 219 3 0.41 4.25294 -0.509839 -4.55106
656 219 3 0.41 5.1556 0.356472 -3.67567
657 219 5 -0.82 5.1609 -0.037486 -4.57418
658 220 3 0.41 1.76605 4.35718 20.1878
659 220 3 0.41 1.83434 4.55736 18.4901
660 220 5 -0.82 1.53438 4.99547 19.3789
661 221 3 0.41 12.3418 2.39824 -7.62431
662 221 3 0.41 10.8131 2.90624 -8.01025
663 221 5 -0.82 11.4296 2.09745 -7.73925
664 222 3 0.41 11.6499 -0.703138 -21.1701
665 222 3 0.41 11.4096 0.555704 -22.14
666 222 5 -0.82 11.2999 -0.457112 -22.1073
667 223 3 0.41 0.746875 11.4276 -14.2677
668 223 3 0.41 1.09992 10.8869 -15.7578
669 223 5 -0.82 1.21439 11.6811 -15.1671
670 224 3 0.41 0.597216 12.1024 7.25492
671 224 3 0.41 -0.899524 12.4228 7.82112
672 224 5 -0.82 0.0921061 -1.25355 7.84093
673 225 3 0.41 6.73567 8.87945 0.0179754
674 225 3 0.41 5.41666 9.13619 -0.902946
675 225 5 -0.82 6.35564 8.78626 -0.903233
676 226 3 0.41 4.42514 8.35313 16.7827
677 226 3 0.41 5.66421 7.57915 16.1454
678 226 5 -0.82 4.66125 7.47813 16.2814
679 227 3 0.41 4.75019 6.92356 20.5496
680 227 3 0.41 3.54047 7.16493 19.5725
681 227 5 -0.82 4.59533 7.0829 19.5486
682 228 3 0.41 4.53428 1.81712 -12.4797
683 228 3 0.41 3.95838 2.9132 -11.4309
684 228 5 -0.82 3.6958 2.16798 -12.0622
685 229 3 0.41 0.89462 5.77966 -21.2793
686 229 3 0.41 -0.0244405 7.06378 -21.6627
687 229 5 -0.82 0.177795 6.10789 -21.9318
688 230 3 0.41 5.60925 1.75914 -5.21734
689 230 3 0.41 5.42822 2.32065 -6.67571
690 230 5 -0.82 5.78087 2.58145 -5.8156
691 231 3 0.41 5.61213 7.75003 -3.77312
692 231 3 0.41 5.85833 7.54564 -2.25414
693 231 5 -0.82 5.25023 7.18656 -3.06179
694 232 3 0.41 0.0165649 1.34349 -9.21077
695 232 3 0.41 -1.26635 1.08901 -10.2648
696 232 5 -0.82 -0.454186 1.67962 -10.0837
697 233 3 0.41 7.02726 5.39133 -4.89458
698 233 3 0.41 6.12308 4.00591 -5.04152
699 233 5 -0.82 6.0745 4.98731 -4.76955
700 234 3 0.41 4.636 10.5853 -0.077952
701 234 3 0.41 5.42376 10.5259 1.35349
702 234 5 -0.82 5.32266 11.0454 0.533007
703 235 3 0.41 10.2517 9.89653 9.75915
704 235 3 0.41 10.2614 8.2816 9.50625
705 235 5 -0.82 9.72413 9.00715 9.97937
706 236 3 0.41 6.15768 2.20477 3.3776
707 236 3 0.41 5.64395 1.1815 2.21527
708 236 5 -0.82 6.01333 1.18819 3.21229
709 237 3 0.41 9.41972 11.3226 11.1575
710 237 3 0.41 9.57942 10.9146 12.8266
711 237 5 -0.82 9.85964 11.5694 12.0923
712 238 3 0.41 3.75278 6.21892 3.55305
713 238 3 0.41 4.00217 4.87025 4.54498
714 238 5 -0.82 4.35337 5.80334 4.26224
715 239 3 0.41 4.39932 11.5485 3.38535
716 239 3 0.41 3.93124 -1.48243 2.09785
717 239 5 -0.82 4.21441 -1.47167 3.10445
718 240 3 0.41 6.36553 0.795745 -1.70381
719 240 3 0.41 5.69907 2.29558 -2.02882
720 240 5 -0.82 5.49477 1.25902 -2.02651
721 241 3 0.41 7.76813 0.59041 1.22198
722 241 3 0.41 8.56667 1.91791 0.781639
723 241 5 -0.82 8.61397 1.09489 1.39485
724 242 3 0.41 -1.36767 10.9085 5.31039
725 242 3 0.41 11.2203 11.7415 5.1966
726 242 5 -0.82 12.1952 11.7554 4.89505
727 243 3 0.41 0.0633023 0.679909 -14.5985
728 243 3 0.41 1.07551 1.66528 -15.431
729 243 5 -0.82 0.261676 1.08126 -15.5187
730 244 3 0.41 1.19205 7.2352 23.1384
731 244 3 0.41 0.0497521 6.58593 21.9858
732 244 5 -0.82 1.00964 6.8444 22.2104
733 245 3 0.41 3.5967 4.5108 -21.5818
734 245 3 0.41 3.61043 2.93294 -21.9576
735 245 5 -0.82 3.25348 3.84496 -22.1859
736 246 3 0.41 12.4705 9.072 21.0418
737 246 3 0.41 12.2575 7.44193 20.818
738 246 5 -0.82 12.048 8.3383 20.4756
739 247 3 0.41 9.71802 11.2267 18.1207
740 247 3 0.41 9.03852 -1.22656 18.0063
741 247 5 -0.82 9.19141 11.8556 17.5403
742 248 3 0.41 8.27607 8.98752 10.8961
743 248 3 0.41 7.50083 8.2354 11.9879
744 248 5 -0.82 7.38466 9.05438 11.3768
745 249 3 0.41 6.07317 -0.935732 -10.7222
746 249 3 0.41 7.49906 -1.48289 -11.1941
747 249 5 -0.82 6.58541 -1.13595 -11.5669
748 250 3 0.41 12.3946 6.26439 22.9138
749 250 3 0.41 11.9539 5.19339 21.9614
750 250 5 -0.82 12.3801 6.11862 21.9216
751 251 3 0.41 11.3365 2.27962 8.71448
752 251 3 0.41 -1.18177 2.28064 7.95748
753 251 5 -0.82 12.1915 1.74068 8.46964