ITEM: TIMESTEP
40000
ITEM: NUMBER OF ATOMS
1360
ITEM: BOX BOUNDS pp pp pp
-1.5000000000000000e+00 1.2500000000000000e+01
-1.5000000000000000e+00 1.2500000000000000e+01
-2.7500000000000000e+01 2.7500000000000000e+01
ITEM: ATOMS id mol type q x y z
1 1 3 0.41 4.01674 -0.877412 5.97609
2 1 3 0.41 2.84992 -0.633008 4.84209
3 1 5 -0.82 3.60211 -0.184549 5.34329
4 2 3 0.41 8.30657 6.20991 -16.1849
5 2 3 0.41 6.88353 6.7751 -16.0544
6 2 5 -0.82 7.62815 6.65276 -16.7672
7 3 3 0.41 2.13644 0.472983 12.8723
8 3 3 0.41 2.14919 1.81921 11.9904
9 3 5 -0.82 2.51041 1.4322 12.8554
10 4 3 0.41 0.16156 11.1145 -19.431
11 4 3 0.41 -0.553933 -1.41541 -19.362
12 4 5 -0.82 0.167874 12.0559 -19.8102
13 5 3 0.41 5.94825 6.37183 -11.1051
14 5 3 0.41 5.49364 7.45977 -12.1193
15 5 5 -0.82 5.68527 7.39141 -11.1454
16 6 3 0.41 6.67184 1.07875 -22.0462
17 6 3 0.41 5.57261 2.0381 -21.2853
18 6 5 -0.82 5.75163 1.59387 -22.1421
19 7 3 0.41 2.86993 11.3433 -14.9477
20 7 3 0.41 3.0024 -1.05001 -15.1861
21 7 5 -0.82 3.3656 12.0594 -15.4701
22 8 3 0.41 2.11129 3.98275 16.5066
23 8 3 0.41 3.38589 3.06515 16.1599
24 8 5 -0.82 3.09055 4.03958 16.1332
25 9 3 0.41 1.87192 5.4641 -19.5307
26 9 3 0.41 1.33603 4.08105 -19.2264
27 9 5 -0.82 0.979396 5.0393 -19.2166
28 10 3 0.41 12.368 8.44023 7.9311
29 10 3 0.41 -0.893485 9.33255 9.06602
30 10 5 -0.82 -0.955542 9.21391 8.02019
31 11 3 0.41 4.34889 10.0137 -10.013
32 11 3 0.41 4.17663 10.4906 -11.5146
33 11 5 -0.82 4.1124 10.8159 -10.5574
34 12 3 0.41 6.65341 2.2614 -14.6681
35 12 3 0.41 6.83468 1.5118 -16.0149
36 12 5 -0.82 6.52193 1.34218 -15.0944
37 13 3 0.41 7.62362 -0.242079 7.20838
38 13 3 0.41 6.43052 -1.32454 7.09143
39 13 5 -0.82 6.86294 -0.541433 6.6522
40 14 3 0.41 -0.671895 5.83878 -19.7656
41 14 3 0.41 -1.40989 7.22075 -19.5738
42 14 5 -0.82 -1.34027 6.43634 -20.2283
43 15 3 0.41 6.33181 4.77141 -0.316108
44 15 3 0.41 5.08176 5.02817 0.641237
45 15 5 -0.82 6.0117 4.56521 0.592306
46 16 3 0.41 12.3135 4.17493 10.1945
47 16 3 0.41 12.4953 3.74901 8.67016
48 16 5 -0.82 12.4373 4.55669 9.26843
49 17 3 0.41 8.86387 0.50682 21.8692
50 17 3 0.41 10.0162 -0.373713 22.2826
51 17 5 -0.82 9.19567 -0.425093 21.7314
52 18 3 0.41 3.26881 0.593037 -22.1137
53 18 3 0.41 3.53195 2.00711 -21.658
54 18 5 -0.82 2.81883 1.51726 -22.1111
55 19 3 0.41 1.37124 9.24228 8.02673
56 19 3 0.41 2.86426 8.76384 8.29178
57 19 5 -0.82 1.92614 8.67027 8.66712
58 20 3 0.41 0.935851 11.2333 -17.1604
59 20 3 0.41 2.59173 11.1541 -17.0089
60 20 5 -0.82 1.78404 10.9543 -17.5963
61 21 3 0.41 9.85488 10.7667 21.9909
62 21 3 0.41 11.0141 10.7271 23.0903
63 21 5 -0.82 10.8572 10.5433 22.1209
64 22 3 0.41 8.42219 3.82107 -19.3426
65 22 3 0.41 7.20931 3.58049 -18.4224
66 22 5 -0.82 7.43636 3.62429 -19.4182
67 23 3 0.41 -1.29159 1.11515 -14.5601
68 23 3 0.41 0.16674 1.6617 -14.761
69 23 5 -0.82 -0.701783 1.45746 -15.3404
70 24 3 0.41 7.19584 7.73358 -19.2455
71 24 3 0.41 8.33371 6.96463 -18.5142
72 24 5 -0.82 8.15928 7.37293 -19.4144
73 25 3 0.41 0.171481 5.76246 -10.341
74 25 3 0.41 1.67889 5.14324 -9.81485
75 25 5 -0.82 0.772805 4.90056 -10.2435
76 26 3 0.41 7.30732 -0.171227 -15.0764
77 26 3 0.41 6.97773 12.3069 -14.6239
78 26 5 -0.82 7.73366 -1.0767 -14.8576
79 27 3 0.41 5.99277 -0.930455 -11.8222
80 27 3 0.41 5.4542 12.2666 -13.1994
81 27 5 -0.82 5.59224 -0.891135 -12.7247
82 28 3 0.41 -0.478909 2.52503 -8.81014
83 28 3 0.41 -0.205363 3.68846 -9.82846
84 28 5 -0.82 -0.61463 2.76141 -9.77396
85 29 3 0.41 8.28676 11.9735 21.7338
86 29 3 0.41 7.18188 10.767 21.8156
87 29 5 -0.82 8.09894 11.0409 21.4319
88 30 3 0.41 0.701097 1.38986 7.91145
89 30 3 0.41 -0.829957 1.56471 7.75247
90 30 5 -0.82 -0.0113013 2.01616 8.14163
91 31 3 0.41 7.74993 -1.05264 -16.9236
92 31 3 0.41 6.33396 -1.16611 -17.671
93 31 5 -0.82 7.3178 -1.42867 -17.7712
94 32 3 0.41 5.1747 10.731 -15.6232
95 32 3 0.41 5.91629 9.99253 -14.4667
96 32 5 -0.82 5.9656 10.8134 -15.0306
97 33 3 0.41 11.8092 8.07388 -17.0163
98 33 3 0.41 10.4321 7.70726 -16.4219
99 33 5 -0.82 10.8938 7.76587 -17.3116
100 34 3 0.41 1.1082 11.2902 7.63598
101 34 3 0.41 1.35751 11.4313 5.93201
102 34 5 -0.82 1.54774 10.8878 6.79273
103 35 3 0.41 1.41747 8.81737 16.7778
104 35 3 0.41 0.0194613 9.63636 16.5385
105 35 5 -0.82 1.05092 9.77949 16.7158
106 36 3 0.41 -0.294881 11.9134 -7.08292
107 36 3 0.41 -1.25315 12.102 -8.31741
108 36 5 -0.82 -0.629703 11.4176 -7.91029
109 37 3 0.41 11.8029 9.20227 22.0739
110 37 3 0.41 12.0879 8.04745 22.9823
111 37 5 -0.82 12.3463 8.33874 22.0395
112 38 3 0.41 0.753154 6.01315 -4.95688
113 38 3 0.41 0.735069 7.64955 -4.57509
114 38 5 -0.82 0.20756 6.87671 -4.93951
115 39 3 0.41 9.80915 4.07593 -14.8846
116 39 3 0.41 9.30761 5.62332 -14.8106
117 39 5 -0.82 8.9774 4.67386 -15.0185
118 40 3 0.41 10.9927 3.72081 -21.9306
119 40 3 0.41 9.66465 4.53213 -21.6157
120 40 5 -0.82 10.01 3.6546 -22.0153
121 41 3 0.41 12.1449 10.703 -13.086
122 41 3 0.41 12.1944 9.45758 -14.0243
123 41 5 -0.82 11.6949 9.83325 -13.2444
124 42 3 0.41 7.1202 4.61232 4.52108
125 42 3 0.41 7.92801 4.43472 5.95635
126 42 5 -0.82 7.00826 4.58588 5.54675
127 43 3 0.41 9.14932 -1.28431 19.9015
128 43 3 0.41 9.41057 -1.39708 18.3123
129 43 5 -0.82 9.84291 12.4473 19.1902
130 44 3 0.41 7.647 -1.48526 -22.4063
131 44 3 0.41 8.63725 -0.179177 -22.2283
132 44 5 -0.82 8.65913 -1.20549 -22.4164
133 45 3 0.41 10.5306 10.2662 6.64761
134 45 3 0.41 10.4545 8.63614 6.36141
135 45 5 -0.82 10.2251 9.3548 6.99487
136 46 3 0.41 6.8076 0.842753 21.987
137 46 3 0.41 6.22846 -0.211752 23.0594
138 46 5 -0.82 6.1907 0.05263 22.1098
139 47 3 0.41 11.3426 8.43865 10.1194
140 47 3 0.41 10.4376 8.24749 8.79179
141 47 5 -0.82 10.4115 8.21814 9.78952
142 48 3 0.41 9.64652 9.40006 10.6418
143 48 3 0.41 8.04453 9.62854 11.1119
144 48 5 -0.82 8.98814 10.0439 11.0492
145 49 3 0.41 10.622 4.30347 0.321007
146 49 3 0.41 10.6902 3.1936 1.36311
147 49 5 -0.82 11.3223 3.70935 0.750403
148 50 3 0.41 5.78055 -0.63809 15.7897
149 50 3 0.41 6.78499 0.58759 15.395
150 50 5 -0.82 6.00551 0.045777 15.0388
151 51 3 0.41 2.16957 0.559131 2.10125
152 51 3 0.41 1.32384 1.35021 3.1484
153 51 5 -0.82 2.17037 0.858116 3.07468
154 52 3 0.41 2.233 3.05611 -15.4816
155 52 3 0.41 1.05466 3.6184 -16.3069
156 52 5 -0.82 1.69443 2.82896 -16.3067
157 53 3 0.41 7.0327 7.22159 7.07846
158 53 3 0.41 8.34853 8.09824 7.49987
159 53 5 -0.82 7.78209 7.30094 7.7535
160 54 3 0.41 4.48272 10.0535 13.2095
161 54 3 0.41 4.92828 11.4833 13.7561
162 54 5 -0.82 4.2939 10.6904 14.025
163 55 3 0.41 4.88334 8.76639 -0.667651
164 55 3 0.41 4.65394 7.31855 -0.00763288
165 55 5 -0.82 5.20848 7.78239 -0.710168
166 56 3 0.41 7.41781 2.98238 -1.17395
167 56 3 0.41 7.89859 1.626 -0.355864
168 56 5 -0.82 7.93554 2.62697 -0.407358
169 57 3 0.41 2.19134 9.61727 -21.0687
170 57 3 0.41 3.08006 10.7683 -21.7633
171 57 5 -0.82 2.28247 10.1979 -21.9052
172 58 3 0.41 9.22979 2.28472 -22.1225
173 58 3 0.41 8.81738 0.94937 -21.2146
174 58 5 -0.82 8.67093 1.43732 -22.085
175 59 3 0.41 1.5752 9.0372 -2.77577
176 59 3 0.41 1.62689 9.63952 -4.32644
177 59 5 -0.82 2.15655 9.15385 -3.63101
178 60 3 0.41 9.03748 8.175 -0.590307
179 60 3 0.41 8.7636 8.21924 -2.12095
180 60 5 -0.82 9.46147 8.42984 -1.47725
181 61 3 0.41 0.505947 2.70253 15.1153
182 61 3 0.41 1.3577 2.62013 13.6947
183 61 5 -0.82 0.587365 3.06355 14.1656
184 62 3 0.41 0.250253 5.35251 -3.13027
185 62 3 0.41 0.810855 3.82274 -2.72394
186 62 5 -0.82 0.898768 4.60765 -3.32884
187 63 3 0.41 5.32631 8.26983 20.9219
188 63 3 0.41 4.96819 8.92532 19.4782
189 63 5 -0.82 5.73307 8.50158 19.9983
190 64 3 0.41 9.58987 2.47708 6.34594
191 64 3 0.41 7.93294 2.38716 6.86747
192 64 5 -0.82 8.6184 2.2194 6.10023
193 65 3 0.41 10.8475 8.9463 1.63853
194 65 3 0.41 10.9925 8.29257 3.00835
195 65 5 -0.82 10.3455 8.2619 2.25819
196 66 3 0.41 3.39861 6.07425 0.240674
197 66 3 0.41 3.15883 5.85366 1.77861
198 66 5 -0.82 3.74994 5.49223 1.01623
199 67 3 0.41 7.11018 10.2849 19.1718
200 67 3 0.41 7.03265 11.871 18.999
201 67 5 -0.82 7.16544 11.0102 18.5015
202 68 3 0.41 2.67448 0.0948661 18.8985
203 68 3 0.41 2.31167 -1.21402 19.6583
204 68 5 -0.82 2.94381 -0.37648 19.7707
205 69 3 0.41 2.55956 0.44296 -14.1456
206 69 3 0.41 1.78048 -0.357105 -13.0398
207 69 5 -0.82 1.62278 0.16165 -13.8927
208 70 3 0.41 -0.508043 1.11662 -10.2891
209 70 3 0.41 12.4711 0.169776 -9.80561
210 70 5 -0.82 -0.659543 0.126177 -10.307
211 71 3 0.41 9.57559 6.21899 5.09817
212 71 3 0.41 9.84779 5.08739 6.28202
213 71 5 -0.82 9.87787 5.24415 5.24328
214 72 3 0.41 7.21265 6.62658 15.3084
215 72 3 0.41 8.06963 5.43493 15.5714
216 72 5 -0.82 7.30917 5.93697 16.0442
217 73 3 0.41 1.56351 -0.793097 -3.56222
218 73 3 0.41 0.99903 11.8021 -4.05869
219 73 5 -0.82 0.668741 -1.28791 -3.65999
220 74 3 0.41 7.66938 2.82598 8.8053
221 74 3 0.41 7.76856 1.37381 9.4291
222 74 5 -0.82 7.64117 1.84613 8.55421
223 75 3 0.41 3.96432 8.6856 -13.3237
224 75 3 0.41 2.8451 9.84361 -13.2033
225 75 5 -0.82 3.78485 9.56792 -12.8673
226 76 3 0.41 10.5349 12.4086 -8.81455
227 76 3 0.41 11.2031 -0.121362 -8.55726
228 76 5 -0.82 11.366 -1.13265 -8.78719
229 77 3 0.41 9.36772 11.6891 16.4015
230 77 3 0.41 7.86671 11.5946 16.995
231 77 5 -0.82 8.52005 12.228 16.5879
232 78 3 0.41 3.87368 6.36371 -14.9664
233 78 3 0.41 2.48345 5.59026 -14.85
234 78 5 -0.82 3.04195 6.00742 -15.5226
235 79 3 0.41 11.6946 10.9912 8.117
236 79 3 0.41 10.6393 11.6095 9.11552
237 79 5 -0.82 11.6633 11.516 8.98777
238 80 3 0.41 9.24898 1.01449 -18.6353
239 80 3 0.41 10.097 -0.0866927 -19.5058
240 80 5 -0.82 9.29855 0.576111 -19.58
241 81 3 0.41 8.26251 0.708299 -3.21484
242 81 3 0.41 9.3584 1.78646 -2.97403
243 81 5 -0.82 8.91855 1.2434 -3.69982
244 82 3 0.41 4.73572 3.86973 15.008
245 82 3 0.41 5.6387 4.67263 13.9288
246 82 5 -0.82 5.40319 3.73727 14.2829
247 83 3 0.41 3.62192 6.15508 8.03022
248 83 3 0.41 4.48883 6.21264 9.40366
249 83 5 -0.82 3.61626 5.83223 8.99354
250 84 3 0.41 5.1251 -0.440958 12.0545
251 84 3 0.41 5.63462 -0.507612 13.5263
252 84 5 -0.82 5.35103 -1.13559 12.7474
253 85 3 0.41 9.59219 6.7143 22.2542
254 85 3 0.41 10.4631 5.7389 23.2034
255 85 5 -0.82 10.315 6.02043 22.2552
256 86 3 0.41 3.40963 1.39013 -10.921
257 86 3 0.41 4.26001 2.34487 -11.7744
258 86 5 -0.82 3.29587 2.13212 -11.5715
259 87 3 0.41 4.94196 3.26868 1.01894
260 87 3 0.41 3.37175 3.01194 1.37467
261 87 5 -0.82 4.35733 2.7296 1.65241
262 88 3 0.41 2.20998 8.99724 21.6623
263 88 3 0.41 2.89675 9.66072 20.3759
264 88 5 -0.82 2.96934 9.64436 21.399
265 89 3 0.41 3.2452 12.1927 -11.3275
266 89 3 0.41 1.66508 12.1221 -11.1472
267 89 5 -0.82 2.38858 -1.39062 -11.72
268 90 3 0.41 10.9228 12.454 -14.3858
269 90 3 0.41 9.27302 -1.11131 -14.3207
270 90 5 -0.82 10.1654 -1.28968 -13.769
271 91 3 0.41 12.4759 -0.987157 7.02693
272 91 3 0.41 12.1192 0.00972151 5.77565
273 91 5 -0.82 12.4888 -0.0054291 6.73707
274 92 3 0.41 0.404944 10.6484 3.61073
275 92 3 0.41 -0.842753 11.627 3.57025
276 92 5 -0.82 -0.598307 10.6362 3.83134
277 93 3 0.41 2.90068 8.03723 10.2418
278 93 3 0.41 4.17076 8.43615 11.0373
279 93 5 -0.82 3.31388 7.93474 11.1359
280 94 3 0.41 -1.25118 4.23929 -2.14146
281 94 3 0.41 11.9539 3.09655 -1.409
282 94 5 -0.82 -1.11157 3.31701 -1.75201
283 95 3 0.41 4.48494 2.01609 11.3251
284 95 3 0.41 4.78562 2.17777 12.8608
285 95 5 -0.82 5.17145 1.76304 12.0123
286 96 3 0.41 9.06054 9.10961 13.9757
287 96 3 0.41 9.76687 9.1452 12.5924
288 96 5 -0.82 9.77848 8.6282 13.4657
289 97 3 0.41 -0.643714 4.50379 22.1054
290 97 3 0.41 -0.425114 5.64773 23.2082
291 97 5 -0.82 -0.466303 5.50859 22.2471
292 98 3 0.41 9.71378 5.43039 -19.9299
293 98 3 0.41 9.8056 5.7117 -18.269
294 98 5 -0.82 9.78786 5.00357 -18.9989
295 99 3 0.41 6.55887 7.21219 13.2482
296 99 3 0.41 7.55568 6.20975 12.7705
297 99 5 -0.82 7.34394 6.70796 13.6255
298 100 3 0.41 -1.37458 0.481427 -1.12228
299 100 3 0.41 11.0186 0.358793 -1.30443
300 100 5 -0.82 11.7375 0.482641 -0.670358
301 101 3 0.41 11.6183 -1.36543 0.101429
302 101 3 0.41 10.8765 12.0274 1.40952
303 101 5 -0.82 10.9506 11.9246 0.363936
304 102 3 0.41 6.58586 9.37701 -18.4695
305 102 3 0.41 5.02132 9.06645 -18.2699
306 102 5 -0.82 5.68551 9.27308 -18.9981
307 103 3 0.41 4.87547 8.27618 7.39023
308 103 3 0.41 5.57978 9.47624 8.11362
309 103 5 -0.82 4.68659 9.05423 8.06447
310 104 3 0.41 9.40082 12.0579 -4.72325
311 104 3 0.41 9.10314 11.3447 -3.23867
312 104 5 -0.82 9.18342 11.165 -4.26594
313 105 3 0.41 4.30923 3.62915 9.83674
314 105 3 0.41 3.35443 2.5018 9.14082
315 105 5 -0.82 3.65271 2.8801 10.0509
316 106 3 0.41 1.04496 6.3084 -0.476907
317 106 3 0.41 1.37111 7.76685 -1.18598
318 106 5 -0.82 1.68822 6.78359 -1.07374
319 107 3 0.41 6.85781 11.2077 -2.40367
320 107 3 0.41 5.65598 10.4365 -1.75607
321 107 5 -0.82 6.58226 10.301 -2.05425
322 108 3 0.41 4.32888 6.14775 -19.1145
323 108 3 0.41 3.08307 7.20031 -19.1067
324 108 5 -0.82 3.40763 6.35056 -19.5496
325 109 3 0.41 11.446 -0.872203 -21.1799
326 109 3 0.41 11.7427 0.154476 -22.3805
327 109 5 -0.82 11.6645 -0.833057 -22.2048
328 110 3 0.41 3.93906 -1.34274 -5.24156
329 110 3 0.41 4.03523 -0.431921 -6.49561
330 110 5 -0.82 3.58915 -1.31189 -6.18994
331 111 3 0.41 9.77625 4.51809 -6.49456
332 111 3 0.41 10.3703 5.55522 -7.51707
333 111 5 -0.82 9.81428 4.72242 -7.47623
334 112 3 0.41 -1.29362 1.85997 -18.6812
335 112 3 0.41 -0.845057 1.26471 -17.1915
336 112 5 -0.82 -1.0642 1.02442 -18.1379
337 113 3 0.41 4.24269 1.73887 18.5672
338 113 3 0.41 5.53792 2.22187 17.7307
339 113 5 -0.82 5.05057 1.39823 18.0364
340 114 3 0.41 11.1135 0.198224 -16.3956
341 114 3 0.41 10.6574 -1.37407 -16.4683
342 114 5 -0.82 11.4238 -0.751971 -16.2269
343 115 3 0.41 12.0913 6.5126 -2.81182
344 115 3 0.41 -1.14172 6.47022 -1.43119
345 115 5 -0.82 -1.24918 5.95923 -2.32502
346 116 3 0.41 11.3046 10.5633 17.1615
347 116 3 0.41 11.7064 11.4929 15.955
348 116 5 -0.82 10.8917 10.9937 16.3518
349 117 3 0.41 10.004 6.62397 -21.6283
350 117 3 0.41 8.87097 6.64279 -20.5551
351 117 5 -0.82 9.26926 5.99341 -21.2421
352 118 3 0.41 10.897 9.35993 -1.78733
353 118 3 0.41 12.0781 9.8225 -0.839337
354 118 5 -0.82 11.902 9.61114 -1.81175
355 119 3 0.41 6.08177 10.7515 -4.80469
356 119 3 0.41 7.49517 11.2215 -5.20059
357 119 5 -0.82 6.6708 10.8473 -5.62275
358 120 3 0.41 -0.634477 -1.10935 17.6165
359 120 3 0.41 0.453575 11.9225 16.9008
360 120 5 -0.82 -0.470046 12.357 16.733
361 121 3 0.41 11.3046 5.47652 -12.8016
362 121 3 0.41 12.1652 6.85245 -13.1463
363 121 5 -0.82 11.5486 6.15314 -13.5678
364 122 3 0.41 0.951056 7.92906 12.4618
365 122 3 0.41 0.204754 7.4031 11.0693
366 122 5 -0.82 0.0433093 7.60133 12.0633
367 123 3 0.41 9.46856 3.40655 -1.4559
368 123 3 0.41 9.98875 4.00756 -2.81694
369 123 5 -0.82 10.0462 3.15359 -2.27384
370 124 3 0.41 3.93387 10.6065 -0.119189
371 124 3 0.41 3.20367 9.97631 -1.43027
372 124 5 -0.82 4.09543 10.2385 -1.05035
373 125 3 0.41 5.2599 9.47439 -20.8378
374 125 3 0.41 5.66321 8.51761 -22.1021
375 125 5 -0.82 5.27761 9.42086 -21.845
376 126 3 0.41 8.2128 2.39348 -9.39166
377 126 3 0.41 9.02658 3.68049 -8.89144
378 126 5 -0.82 8.40966 3.37679 -9.63078
379 127 3 0.41 -0.869795 9.90582 13.9836
380 127 3 0.41 0.150803 10.6709 14.9387
381 127 5 -0.82 -0.261068 10.7507 14.0229
382 128 3 0.41 12.1298 0.715409 11.2273
383 128 3 0.41 -1.37819 0.327569 12.6803
384 128 5 -0.82 11.9193 0.850044 12.2036
385 129 3 0.41 1.5368 5.58955 10.791
386 129 3 0.41 2.76117 4.54028 10.7449
387 129 5 -0.82 2.00944 4.86118 11.37
388 130 3 0.41 6.52982 12.1987 -9.55528
389 130 3 0.41 7.83052 12.188 -10.3322
390 130 5 -0.82 6.90423 -1.40631 -10.397
391 131 3 0.41 7.29156 9.94429 -16.2307
392 131 3 0.41 7.85529 8.51654 -16.8418
393 131 5 -0.82 7.53805 9.43655 -17.0639
394 132 3 0.41 5.80847 2.84789 -2.4124
395 132 3 0.41 6.53338 2.30962 -3.80281
396 132 5 -0.82 6.57017 3.02279 -3.08882
397 133 3 0.41 7.84847 4.36585 2.84277
398 133 3 0.41 6.87506 3.48095 2.00353
399 133 5 -0.82 7.2338 3.56934 2.91568
400 134 3 0.41 12.0459 5.0023 3.15204
401 134 3 0.41 -1.29884 6.33102 3.26193
402 134 5 -0.82 12.0425 5.86864 2.67812
403 135 3 0.41 11.6755 3.9869 -16.2112
404 135 3 0.41 12.0847 4.27626 -14.6208
405 135 5 -0.82 11.4227 3.77233 -15.2437
406 136 3 0.41 2.28297 10.8407 11.242
407 136 3 0.41 1.62496 10.2012 12.5662
408 136 5 -0.82 1.34868 10.6343 11.6459
409 137 3 0.41 1.8389 11.4009 2.76555
410 137 3 0.41 2.80708 11.0964 3.83597
411 137 5 -0.82 1.90263 11.5505 3.74741
412 138 3 0.41 11.2391 2.55859 7.77736
413 138 3 0.41 10.3358 2.802 9.0942
414 138 5 -0.82 10.7624 2.05916 8.52488
415 139 3 0.41 6.64465 -0.827225 20.0126
416 139 3 0.41 6.39718 0.400384 19.0333
417 139 5 -0.82 7.03813 -0.328558 19.2174
418 140 3 0.41 10.9445 10.5637 -10.576
419 140 3 0.41 11.4021 9.86358 -9.11404
420 140 5 -0.82 11.5257 9.83366 -10.1029
421 141 3 0.41 9.32002 9.82502 -21.8975
422 141 3 0.41 8.45438 9.04791 -20.8751
423 141 5 -0.82 8.48717 9.19689 -21.8675
424 142 3 0.41 12.2809 5.9722 -7.98713
425 142 3 0.41 12.463 7.36198 -8.50686
426 142 5 -0.82 11.7383 6.64255 -8.53105
427 143 3 0.41 11.7799 11.6163 12.304
428 143 3 0.41 12.0966 12.4494 10.9756
429 143 5 -0.82 -1.48651 11.7837 11.6167
430 144 3 0.41 3.75151 3.21085 -19.7238
431 144 3 0.41 5.35554 2.94763 -19.7494
432 144 5 -0.82 4.54393 3.14432 -20.3228
433 145 3 0.41 -1.1798 10.4694 -17.1682
434 145 3 0.41 11.2767 10.9204 -17.4756
435 145 5 -0.82 12.2332 10.9821 -17.8515
436 146 3 0.41 9.47963 0.839253 -11.225
437 146 3 0.41 10.7936 1.27243 -10.3602
438 146 5 -0.82 10.4338 0.532874 -11.0246
439 147 3 0.41 2.6732 8.9432 1.26423
440 147 3 0.41 3.9559 8.30143 1.99435
441 147 5 -0.82 3.41848 8.26718 1.13891
442 148 3 0.41 10.8563 0.478151 18.0715
443 148 3 0.41 12.0651 0.186107 17.0223
444 148 5 -0.82 11.1192 0.0494217 17.2163
445 149 3 0.41 0.14925 2.04488 -1.56123
446 149 3 0.41 0.743529 0.878565 -2.3685
447 149 5 -0.82 0.660182 1.17194 -1.4183
448 150 3 0.41 9.96691 1.31084 -13.8646
449 150 3 0.41 10.69 2.37549 -15.0129
450 150 5 -0.82 10.1017 1.5349 -14.8612
451 151 3 0.41 0.686328 -1.20863 10.1289
452 151 3 0.41 0.562815 0.309281 10.6771
453 151 5 -0.82 0.844195 -0.634002 10.9273
454 152 3 0.41 3.26269 2.85243 5.814
455 152 3 0.41 2.41471 3.12109 4.50953
456 152 5 -0.82 3.36866 2.87817 4.8117
457 153 3 0.41 -0.581754 -1.01628 14.7974
458 153 3 0.41 -0.0537321 0.36091 14.6093
459 153 5 -0.82 -0.408095 -0.382045 14.0003
460 154 3 0.41 6.26796 0.368913 -19.4045
461 154 3 0.41 7.72651 -0.258276 -19.7314
462 154 5 -0.82 6.7793 -0.0970229 -20.1187
463 155 3 0.41 7.59774 7.21333 17.828
464 155 3 0.41 6.91911 7.57618 19.3244
465 155 5 -0.82 7.44095 6.89438 18.7791
466 156 3 0.41 8.95163 10.3936 -1.57682
467 156 3 0.41 10.0293 11.4232 -1.16626
468 156 5 -0.82 9.19448 11.3475 -1.72661
469 157 3 0.41 12.3746 -1.10809 21.8388
470 157 3 0.41 12.2551 -0.245662 23.1325
471 157 5 -0.82 12.0966 -0.190556 22.128
472 158 3 0.41 2.62796 11.0223 -7.51825
473 158 3 0.41 3.0027 10.5908 -8.95992
474 158 5 -0.82 2.22704 10.9071 -8.38872
475 159 3 0.41 9.43611 8.93944 -11.0799
476 159 3 0.41 10.6994 8.85768 -12.1229
477 159 5 -0.82 9.83324 8.3499 -11.8309
478 160 3 0.41 11.6019 0.876542 9.21765
479 160 3 0.41 12.0548 -0.695478 9.24716
480 160 5 -0.82 12.2117 0.182839 9.7241
481 161 3 0.41 4.67643 10.9236 2.18778
482 161 3 0.41 4.77522 -1.45529 1.76067
483 161 5 -0.82 4.56013 11.5881 1.42629
484 162 3 0.41 5.94698 6.41294 -8.57163
485 162 3 0.41 5.90098 6.34112 -6.94508
486 162 5 -0.82 5.33982 6.1648 -7.7839
487 163 3 0.41 0.821377 10.1145 -14.8296
488 163 3 0.41 0.884584 11.1674 -13.65
489 163 5 -0.82 1.48254 10.5755 -14.1949
490 164 3 0.41 6.28706 11.3209 0.481859
491 164 3 0.41 7.37259 12.4787 1.03754
492 164 5 -0.82 7.25555 11.4915 0.647889
493 165 3 0.41 8.7607 5.88112 18.2712
494 165 3 0.41 10.3133 5.79037 18.5101
495 165 5 -0.82 9.59416 5.37566 17.9352
496 166 3 0.41 8.71009 2.56565 16.7438
497 166 3 0.41 9.108 4.09684 16.8705
498 166 5 -0.82 8.82929 3.38722 16.2323
499 167 3 0.41 4.18834 5.25439 -8.88068
500 167 3 0.41 3.22213 4.14117 -9.33083
501 167 5 -0.82 3.39684 5.11847 -9.49501
502 168 3 0.41 7.93146 -0.161131 -9.72477
503 168 3 0.41 8.39989 -0.0688484 -8.25993
504 168 5 -0.82 8.30509 0.481225 -9.08151
505 169 3 0.41 0.980022 7.43067 2.64956
506 169 3 0.41 0.424658 8.86814 2.61374
507 169 5 -0.82 0.132693 7.93515 2.46945
508 170 3 0.41 4.69206 1.11593 -7.92683
509 170 3 0.41 6.05424 0.719581 -7.09796
510 170 5 -0.82 5.07066 0.998929 -7.01079
511 171 3 0.41 8.51767 -0.575427 13.8169
512 171 3 0.41 7.47393 -0.605432 12.6776
513 171 5 -0.82 8.29663 -1.06426 12.9383
514 172 3 0.41 0.0958559 -0.545316 21.9635
515 172 3 0.41 1.67428 -0.383793 21.7915
516 172 5 -0.82 0.866778 0.178347 21.9426
517 173 3 0.41 6.64416 -0.366285 9.92291
518 173 3 0.41 5.23989 -0.918718 9.41928
519 173 5 -0.82 6.18671 -1.20067 9.50527
520 174 3 0.41 -0.120671 2.35546 20.12
521 174 3 0.41 12.4263 1.60213 20.2376
522 174 5 -0.82 -0.733915 1.73545 19.6172
523 175 3 0.41 5.58761 12.1196 4.19559
524 175 3 0.41 6.64754 -1.39193 5.28378
525 175 5 -0.82 6.5923 12.1053 4.41971
526 176 3 0.41 7.65995 5.26641 -2.35129
527 176 3 0.41 8.08217 5.19018 -0.939216
528 176 5 -0.82 7.25947 5.49657 -1.44375
529 177 3 0.41 7.07069 11.5028 8.88126
530 177 3 0.41 8.41176 10.5694 8.72577
531 177 5 -0.82 7.47453 10.6983 8.36064
532 178 3 0.41 0.211167 -0.536215 -22.4857
533 178 3 0.41 0.630698 12.1864 -21.5918
534 178 5 -0.82 0.843019 -1.3106 -22.4859
535 179 3 0.41 1.83169 4.3908 -22.3029
536 179 3 0.41 1.40576 2.99218 -21.7352
537 179 5 -0.82 1.04458 3.8058 -22.1994
538 180 3 0.41 1.59849 5.21936 3.27014
539 180 3 0.41 2.83333 5.9587 3.84332
540 180 5 -0.82 2.12605 6.08595 3.13983
541 181 3 0.41 3.20801 2.63308 -13.5959
542 181 3 0.41 3.08025 4.12871 -13.3232
543 181 5 -0.82 3.14315 3.47845 -14.1349
544 182 3 0.41 1.41962 0.785964 -20.8912
545 182 3 0.41 0.16307 -0.0315769 -20.1651
546 182 5 -0.82 0.48194 0.85064 -20.4979
547 183 3 0.41 4.21638 4.7338 -16.3209
548 183 3 0.41 4.22219 3.50454 -15.3596
549 183 5 -0.82 4.76789 3.89871 -16.1379
550 184 3 0.41 1.87079 0.220939 6.76234
551 184 3 0.41 3.17753 0.957536 7.44282
552 184 5 -0.82 2.34275 0.38134 7.66546
553 185 3 0.41 2.21231 7.80869 -8.6602
554 185 3 0.41 3.14375 7.21203 -9.92818
555 185 5 -0.82 2.70054 8.02327 -9.5568
556 186 3 0.41 5.47655 0.880568 -5.26411
557 186 3 0.41 4.49297 0.891641 -4.01313
558 186 5 -0.82 5.48937 0.798472 -4.25605
559 187 3 0.41 2.12133 7.20309 6.0578
560 187 3 0.41 2.22623 5.57072 6.39358
561 187 5 -0.82 2.74523 6.37684 6.0656
562 188 3 0.41 0.291934 10.0022 -22.1375
563 188 3 0.41 -0.724005 9.45008 -21.1123
564 188 5 -0.82 -0.661206 9.74764 -22.0633
565 189 3 0.41 7.13417 9.45726 15.3819
566 189 3 0.41 6.13071 9.02409 16.5963
567 189 5 -0.82 7.05944 8.85231 16.1895
568 190 3 0.41 8.04992 -0.259784 16.4982
569 190 3 0.41 8.12782 0.83604 17.6846
570 190 5 -0.82 8.0199 0.767428 16.6651
571 191 3 0.41 3.97967 9.92741 15.567
572 191 3 0.41 4.1291 8.39178 16.0018
573 191 5 -0.82 4.09268 9.31323 16.371
574 192 3 0.41 -0.327904 8.89023 20.703
575 192 3 0.41 -1.25023 9.79883 19.6999
576 192 5 -0.82 -0.271561 9.64174 20.0235
577 193 3 0.41 -1.35342 6.6565 12.5165
578 193 3 0.41 11.6567 5.40235 12.1864
579 193 5 -0.82 11.7209 6.25644 12.7299
580 194 3 0.41 8.36047 3.31299 19.5462
581 194 3 0.41 7.42177 2.65564 18.3054
582 194 5 -0.82 8.21761 2.54142 18.9026
583 195 3 0.41 11.6825 4.24315 6.09425
584 195 3 0.41 -1.42643 3.00172 5.77466
585 195 5 -0.82 11.7956 3.2683 6.31736
586 196 3 0.41 12.2607 5.09124 -21.4047
587 196 3 0.41 -0.51489 4.33696 -22.1822
588 196 5 -0.82 12.4499 4.33985 -22.0644
589 197 3 0.41 7.31939 9.96909 6.55159
590 197 3 0.41 6.91582 10.4561 5.05534
591 197 5 -0.82 7.57519 9.91889 5.5872
592 198 3 0.41 6.01745 4.37887 -14.3304
593 198 3 0.41 7.4602 4.16608 -13.6264
594 198 5 -0.82 6.58196 3.72294 -13.8707
595 199 3 0.41 9.58819 10.3248 -15.9948
596 199 3 0.41 8.85808 11.4561 -16.8784
597 199 5 -0.82 9.76522 10.9909 -16.7721
598 200 3 0.41 9.00473 11.3047 5.9489
599 200 3 0.41 9.89184 12.4687 6.61379
600 200 5 -0.82 9.78693 11.8906 5.78264
601 201 3 0.41 9.43492 -1.12123 11.6695
602 201 3 0.41 9.49953 11.5443 10.8794
603 201 5 -0.82 9.62684 -1.45274 10.7444
604 202 3 0.41 1.29525 2.44247 -12.4442
605 202 3 0.41 0.484056 3.58895 -11.7417
606 202 5 -0.82 0.631944 3.16113 -12.6528
607 203 3 0.41 9.60982 0.540236 7.69783
608 203 3 0.41 9.48182 -0.330532 9.09476
609 203 5 -0.82 9.50841 -0.39384 8.07865
610 204 3 0.41 2.40919 0.0665319 -18.524
611 204 3 0.41 3.51771 1.03527 -19.345
612 204 5 -0.82 3.02759 0.148715 -19.3512
613 205 3 0.41 1.49678 3.83652 -5.11088
614 205 3 0.41 2.39006 4.60579 -6.07585
615 205 5 -0.82 1.49493 4.10537 -6.08366
616 206 3 0.41 7.83593 2.07284 15.0815
617 206 3 0.41 6.67005 2.72865 14.194
618 206 5 -0.82 7.50431 2.1395 14.1054
619 207 3 0.41 -0.2136 0.205095 2.12196
620 207 3 0.41 0.208932 -1.26561 1.86479
621 207 5 -0.82 -0.373006 -0.772824 2.48586
622 208 3 0.41 8.99526 5.94027 7.902
623 208 3 0.41 9.22238 4.52903 8.69502
624 208 5 -0.82 9.36677 5.00928 7.80061
625 209 3 0.41 8.71642 7.27636 -12.5373
626 209 3 0.41 7.3246 6.5582 -13.2349
627 209 5 -0.82 8.10928 6.44626 -12.5903
628 210 3 0.41 -0.829749 3.53836 14.5203
629 210 3 0.41 12.1438 4.76897 14.3157
630 210 5 -0.82 12.2383 3.89778 14.8148
631 211 3 0.41 10.4084 -0.190374 3.97667
632 211 3 0.41 11.8981 -0.129588 3.32848
633 211 5 -0.82 11.3909 0.0271086 4.19795
634 212 3 0.41 3.37199 11.9576 16.4518
635 212 3 0.41 1.9759 11.0086 16.34
636 212 5 -0.82 2.4182 11.8661 16.0283
637 213 3 0.41 -0.371298 9.3882 -1.6455
638 213 3 0.41 0.957869 9.75224 -0.858913
639 213 5 -0.82 0.588818 9.13687 -1.56061
640 214 3 0.41 1.26614 7.91322 -12.6753
641 214 3 0.41 0.703247 7.86935 -14.1593
642 214 5 -0.82 1.08944 7.27115 -13.4411
643 215 3 0.41 5.69404 8.60305 -9.84918
644 215 3 0.41 4.95788 8.34691 -8.41166
645 215 5 -0.82 5.4677 9.05992 -8.93444
646 216 3 0.41 4.80088 4.36797 4.35484
647 216 3 0.41 4.55285 4.62563 2.82989
648 216 5 -0.82 4.68339 5.10427 3.69821
649 217 3 0.41 0.266011 4.78006 -7.1057
650 217 3 0.41 -1.12626 4.56917 -6.62962
651 217 5 -0.82 -0.662186 4.97567 -7.43587
652 218 3 0.41 4.23501 6.75547 12.1283
653 218 3 0.41 3.9115 5.34265 12.6619
654 218 5 -0.82 4.73956 5.88644 12.3525
655 219 3 0.41 7.4744 3.93147 -6.4472
656 219 3 0.41 8.16866 2.60074 -6.52024
657 219 5 -0.82 7.33643 3.06122 -6.90702
658 220 3 0.41 11.2866 2.54933 17.0616
659 220 3 0.41 12.4679 2.70761 18.1282
660 220 5 -0.82 11.8596 3.20918 17.5168
661 221 3 0.41 7.34179 1.15585 -12.2205
662 221 3 0.41 8.17976 0.229375 -13.2368
663 221 5 -0.82 8.26579 0.996748 -12.5978
664 222 3 0.41 4.41838 4.54524 -21.446
665 222 3 0.41 3.82545 5.89131 -22.0825
666 222 5 -0.82 3.85662 4.8999 -22.2086
667 223 3 0.41 4.71291 3.17263 -8.43274
668 223 3 0.41 6.29179 3.33354 -8.25728
669 223 5 -0.82 5.57445 3.23319 -8.97387
670 224 3 0.41 -0.0241306 -0.180987 5.84659
671 224 3 0.41 0.770883 -0.718957 4.52821
672 224 5 -0.82 0.867386 -0.522702 5.49959
673 225 3 0.41 7.67433 -0.776562 -2.54335
674 225 3 0.41 6.18845 -0.709001 -3.32335
675 225 5 -0.82 7.12568 -1.10946 -3.32303
676 226 3 0.41 11.9683 4.86885 17.299
677 226 3 0.41 -1.15631 6.11565 16.5403
678 226 5 -0.82 12.4172 5.7976 17.4404
679 227 3 0.41 9.75739 7.39535 20.2069
680 227 3 0.41 10.8309 8.27596 19.5345
681 227 5 -0.82 10.6422 7.33668 19.7605
682 228 3 0.41 9.89175 11.8818 -12.0792
683 228 3 0.41 10.5045 -1.26497 -10.8443
684 228 5 -0.82 10.1831 11.8044 -11.1049
685 229 3 0.41 -1.03244 1.17291 -21.5085
686 229 3 0.41 12.3546 2.59321 -22.0251
687 229 5 -0.82 12.2225 1.59178 -22.0794
688 230 3 0.41 5.18633 2.86244 -6.52803
689 230 3 0.41 4.01039 3.07782 -5.54828
690 230 5 -0.82 4.75209 3.58951 -5.97415
691 231 3 0.41 3.47974 4.82697 -3.06808
692 231 3 0.41 2.90169 5.93396 -2.01784
693 231 5 -0.82 3.6701 5.31132 -2.20115
694 232 3 0.41 4.51798 -0.707182 -9.3527
695 232 3 0.41 3.23847 0.183331 -9.51519
696 232 5 -0.82 4.26598 0.229187 -9.61124
697 233 3 0.41 5.80171 5.14506 -4.86498
698 233 3 0.41 6.15378 4.36042 -3.52315
699 233 5 -0.82 5.9913 5.31895 -3.8989
700 234 3 0.41 8.61912 -0.629622 -0.343229
701 234 3 0.41 7.14096 0.0327999 -0.887617
702 234 5 -0.82 8.16753 -0.0401449 -1.03912
703 235 3 0.41 6.29252 4.3413 7.29721
704 235 3 0.41 6.08744 5.07529 8.68952
705 235 5 -0.82 6.03659 4.14223 8.2964
706 236 3 0.41 10.1275 6.11826 -1.78631
707 236 3 0.41 10.9103 6.10201 -0.419139
708 236 5 -0.82 10.1197 5.64216 -0.839306
709 237 3 0.41 -1.33329 10.3732 10.8255
710 237 3 0.41 -0.532248 8.94332 11.1379
711 237 5 -0.82 -1.34522 9.35509 10.6978
712 238 3 0.41 1.30794 3.99136 7.44303
713 238 3 0.41 -0.091828 4.27866 6.49313
714 238 5 -0.82 0.630819 4.67268 7.11992
715 239 3 0.41 11.6558 10.5251 0.889909
716 239 3 0.41 -0.971519 9.77462 1.24334
717 239 5 -0.82 12.095 9.63119 0.84993
718 240 3 0.41 6.06587 0.403803 2.01325
719 240 3 0.41 4.69694 1.13691 1.84795
720 240 5 -0.82 5.05968 0.24635 2.05124
721 241 3 0.41 6.58588 2.23053 3.63171
722 241 3 0.41 6.73423 1.54132 5.08056
723 241 5 -0.82 6.16167 1.54446 4.24179
724 242 3 0.41 -0.654803 5.08136 0.534139
725 242 3 0.41 0.372443 5.1914 1.74728
726 242 5 -0.82 0.344816 5.05007 0.773153
727 243 3 0.41 1.79776 2.5089 -17.9444
728 243 3 0.41 1.33219 2.03385 -19.4551
729 243 5 -0.82 1.92724 2.65846 -18.9314
730 244 3 0.41 8.30649 9.06619 21.3933
731 244 3 0.41 7.87207 7.52534 21.7586
732 244 5 -0.82 8.67574 8.1519 21.5867
733 245 3 0.41 3.8421 8.49206 -21.9328
734 245 3 0.41 3.16731 7.2854 -20.9571
735 245 5 -0.82 3.30332 7.59368 -21.9209
736 246 3 0.41 10.6042 11.0926 19.2177
737 246 3 0.41 11.0046 10.3022 20.5062
738 246 5 -0.82 11.2148 10.3132 19.4903
739 247 3 0.41 -1.22787 7.92797 14.186
740 247 3 0.41 11.2774 8.54147 14.1287
741 247 5 -0.82 12.1966 8.70511 14.4903
742 248 3 0.41 9.77639 7.24816 10.8571
743 248 3 0.41 8.36575 6.46789 10.8017
744 248 5 -0.82 9.19783 6.57666 11.3516
745 249 3 0.41 4.95254 1.18945 -14.6233
746 249 3 0.41 4.66198 0.198915 -13.4614
747 249 5 -0.82 4.15903 0.726293 -14.147
748 250 3 0.41 1.49146 7.66775 22.715
749 250 3 0.41 0.284908 6.98 21.9574
750 250 5 -0.82 1.07953 7.55204 21.7721
751 251 3 0.41 9.27332 2.9773 10.8511
752 251 3 0.41 9.68833 4.50408 10.4877
753 251 5 -0.82 9.49066 3.64751 10.0612