ITEM: TIMESTEP
60000
ITEM: NUMBER OF ATOMS
1360
ITEM: BOX BOUNDS pp pp pp
-1.5000000000000000e+00 1.2500000000000000e+01
-1.5000000000000000e+00 1.2500000000000000e+01
-2.7500000000000000e+01 2.7500000000000000e+01
ITEM: ATOMS id mol type q x y z
1 1 3 0.41 10.3616 0.524537 4.74137
2 1 3 0.41 9.50252 0.369356 3.36853
3 1 5 -0.82 9.92051 1.06651 3.98241
4 2 3 0.41 3.06722 8.9445 -15.9116
5 2 3 0.41 4.15896 7.905 -16.3827
6 2 5 -0.82 3.12514 8.11616 -16.5041
7 3 3 0.41 0.602051 1.63508 16.5614
8 3 3 0.41 -0.559571 2.85979 16.5765
9 3 5 -0.82 -0.288767 1.9307 16.2641
10 4 3 0.41 12.2694 10.5534 -20.3664
11 4 3 0.41 11.4028 10.318 -21.7254
12 4 5 -0.82 12.2853 10.705 -21.4024
13 5 3 0.41 -0.796933 3.6285 -13.7762
14 5 3 0.41 0.662982 4.1583 -13.1534
15 5 5 -0.82 0.179168 3.57605 -13.849
16 6 3 0.41 6.79831 -0.772985 -21.7979
17 6 3 0.41 7.49846 11.8129 -22.2375
18 6 5 -0.82 7.62266 -1.14166 -22.2472
19 7 3 0.41 -0.0172815 7.50148 -13.7794
20 7 3 0.41 0.95897 6.49091 -14.4932
21 7 5 -0.82 0.0560313 6.93383 -14.6755
22 8 3 0.41 0.220218 0.0530389 18.6415
23 8 3 0.41 -0.686192 0.317016 17.2957
24 8 5 -0.82 -0.267812 -0.406146 17.8847
25 9 3 0.41 9.76905 2.65427 -19.5749
26 9 3 0.41 11.2248 2.56173 -18.9584
27 9 5 -0.82 10.6281 3.17288 -19.5116
28 10 3 0.41 7.44194 7.29071 7.46176
29 10 3 0.41 6.63351 6.80605 6.07395
30 10 5 -0.82 6.74641 6.66896 7.06294
31 11 3 0.41 1.04786 10.636 -9.37239
32 11 3 0.41 0.712281 10.0314 -10.8522
33 11 5 -0.82 0.528173 10.8212 -10.2132
34 12 3 0.41 0.803799 11.5571 -12.8758
35 12 3 0.41 -0.443214 12.2957 -13.5325
36 12 5 -0.82 -0.00540011 11.386 -13.4693
37 13 3 0.41 -1.19273 1.34262 8.74429
38 13 3 0.41 -0.307462 0.038974 8.46277
39 13 5 -0.82 -1.03696 0.583204 8.03864
40 14 3 0.41 9.83395 6.71219 -19.5719
41 14 3 0.41 10.6802 5.47982 -19.3717
42 14 5 -0.82 10.5801 6.17798 -20.0683
43 15 3 0.41 7.61952 6.95074 0.509563
44 15 3 0.41 6.97597 5.61588 0.928299
45 15 5 -0.82 7.89078 6.07725 0.840466
46 16 3 0.41 5.32791 1.78073 10.4057
47 16 3 0.41 6.59228 2.77066 10.4235
48 16 5 -0.82 5.55503 2.7531 10.4243
49 17 3 0.41 8.54904 10.75 23.1538
50 17 3 0.41 8.84973 12.0798 22.1972
51 17 5 -0.82 8.47289 11.1032 22.2041
52 18 3 0.41 4.78488 12.2121 -21.2265
53 18 3 0.41 3.66011 -0.890191 -22.001
54 18 5 -0.82 4.40396 12.4124 -22.1245
55 19 3 0.41 8.97532 9.26486 5.40469
56 19 3 0.41 8.72722 7.79841 5.0256
57 19 5 -0.82 8.19539 8.67786 5.07615
58 20 3 0.41 0.0581998 10.0986 -15.0116
59 20 3 0.41 -0.212102 8.59259 -15.2792
60 20 5 -0.82 0.383754 9.35401 -15.6403
61 21 3 0.41 9.7628 0.831563 19.8972
62 21 3 0.41 10.1776 0.0413617 18.6527
63 21 5 -0.82 9.57539 0.822767 18.9131
64 22 3 0.41 7.81223 -1.21283 -19.4313
65 22 3 0.41 6.69143 -0.369519 -18.6557
66 22 5 -0.82 7.37024 -0.284272 -19.3969
67 23 3 0.41 7.76053 11.9654 -15.3022
68 23 3 0.41 6.3308 11.3339 -15.3542
69 23 5 -0.82 7.15751 11.4143 -15.9606
70 24 3 0.41 0.22355 9.14223 -18.1245
71 24 3 0.41 1.72717 8.78437 -17.8137
72 24 5 -0.82 1.15871 9.46496 -18.3371
73 25 3 0.41 6.55005 7.30086 -16.2088
74 25 3 0.41 5.40984 7.40473 -15.0524
75 25 5 -0.82 5.51577 7.45533 -16.0728
76 26 3 0.41 9.05552 10.5868 -16.6789
77 26 3 0.41 10.6793 10.0546 -16.618
78 26 5 -0.82 9.98524 10.5752 -17.1194
79 27 3 0.41 -1.08618 10.5002 -10.7112
80 27 3 0.41 -1.02196 10.242 -12.2392
81 27 5 -0.82 12.2534 10.3709 -11.5306
82 28 3 0.41 11.84 0.259162 -10.2147
83 28 3 0.41 10.2823 0.506263 -10.2613
84 28 5 -0.82 11.1802 0.980928 -10.2981
85 29 3 0.41 8.97017 7.99734 23.09
86 29 3 0.41 8.00069 8.19823 21.7629
87 29 5 -0.82 8.90616 7.84484 22.0712
88 30 3 0.41 7.02021 0.229286 6.75787
89 30 3 0.41 7.51093 0.911469 5.4281
90 30 5 -0.82 7.83405 0.75207 6.37341
91 31 3 0.41 2.52376 4.69004 -16.8525
92 31 3 0.41 4.02835 4.89912 -17.2786
93 31 5 -0.82 3.07286 5.01611 -17.6786
94 32 3 0.41 2.02971 10.0514 -15.0905
95 32 3 0.41 2.33184 9.9177 -13.5519
96 32 5 -0.82 2.78831 10.1494 -14.4232
97 33 3 0.41 3.89968 6.93911 -13.9165
98 33 3 0.41 3.02322 7.16986 -15.2331
99 33 5 -0.82 3.04023 6.63274 -14.3577
100 34 3 0.41 0.520116 10.1642 10.2975
101 34 3 0.41 -0.940323 9.95475 10.6526
102 34 5 -0.82 -0.12203 9.42864 10.4595
103 35 3 0.41 1.41615 8.27301 14.6644
104 35 3 0.41 0.353168 8.95887 15.7524
105 35 5 -0.82 0.734248 8.08986 15.3839
106 36 3 0.41 8.43703 12.4012 -5.77566
107 36 3 0.41 8.92284 12.0796 -4.32374
108 36 5 -0.82 9.18936 -1.33783 -5.13989
109 37 3 0.41 12.104 7.77822 23.0566
110 37 3 0.41 11.7548 8.38294 21.694
111 37 5 -0.82 12.3097 7.57724 22.0458
112 38 3 0.41 9.34128 3.80512 -12.6941
113 38 3 0.41 9.62424 3.05625 -11.2097
114 38 5 -0.82 9.01023 3.09855 -12.0215
115 39 3 0.41 5.73939 5.10616 -16.0326
116 39 3 0.41 6.38902 3.95064 -16.8163
117 39 5 -0.82 5.68964 4.61306 -16.9239
118 40 3 0.41 10.5716 1.73397 -21.8146
119 40 3 0.41 10.2824 0.0980017 -21.9225
120 40 5 -0.82 9.86697 1.02167 -21.8946
121 41 3 0.41 5.5947 7.78869 -12.6552
122 41 3 0.41 4.82191 9.1081 -13.0223
123 41 5 -0.82 4.90811 8.12774 -13.304
124 42 3 0.41 0.635465 6.08884 8.96087
125 42 3 0.41 0.868377 4.58371 9.28549
126 42 5 -0.82 0.383627 5.17583 8.62723
127 43 3 0.41 10.1211 11.3272 20.3502
128 43 3 0.41 9.62914 -1.1813 20.5359
129 43 5 -0.82 9.83707 12.1569 19.8385
130 44 3 0.41 8.5358 9.34696 -21.9684
131 44 3 0.41 10.0114 8.56623 -21.9567
132 44 5 -0.82 9.55897 9.51893 -22.0082
133 45 3 0.41 12.4159 7.2174 7.52335
134 45 3 0.41 -0.384981 7.61724 6.56416
135 45 5 -0.82 -1.28506 7.22165 6.55262
136 46 3 0.41 5.25558 2.25222 23.0733
137 46 3 0.41 5.77898 2.80301 21.6036
138 46 5 -0.82 5.34668 2.01425 22.0842
139 47 3 0.41 5.38766 7.11881 7.93031
140 47 3 0.41 3.84523 7.72706 8.08021
141 47 5 -0.82 4.55428 7.0449 8.48326
142 48 3 0.41 5.15419 10.7547 8.68505
143 48 3 0.41 5.95801 10.2286 7.32039
144 48 5 -0.82 6.02251 10.3972 8.33518
145 49 3 0.41 0.174987 5.95342 -0.897601
146 49 3 0.41 0.204967 5.56523 0.57815
147 49 5 -0.82 0.585613 5.25943 -0.258371
148 50 3 0.41 2.51458 3.82982 16.8342
149 50 3 0.41 4.02707 3.95946 17.3357
150 50 5 -0.82 3.29876 3.29931 17.1487
151 51 3 0.41 10.0526 1.51874 0.901443
152 51 3 0.41 9.5193 3.13886 0.939464
153 51 5 -0.82 10.0116 2.38116 1.40968
154 52 3 0.41 11.4944 5.14849 -11.4401
155 52 3 0.41 12.3543 5.72165 -10.381
156 52 5 -0.82 12.3212 4.89444 -10.9202
157 53 3 0.41 11.6347 9.54523 12.3005
158 53 3 0.41 11.9385 9.52723 13.7852
159 53 5 -0.82 11.9271 8.88041 13.0138
160 54 3 0.41 3.66431 10.1937 11.7985
161 54 3 0.41 4.60005 11.3447 11.4484
162 54 5 -0.82 4.4641 10.6687 12.2268
163 55 3 0.41 6.27887 5.71609 -4.95339
164 55 3 0.41 7.00542 5.5044 -3.62378
165 55 5 -0.82 7.20692 5.72457 -4.58201
166 56 3 0.41 12.3865 2.52149 1.44146
167 56 3 0.41 -1.4984 1.42266 0.275625
168 56 5 -0.82 -1.17138 2.36929 0.535846
169 57 3 0.41 11.6011 7.47281 -19.0859
170 57 3 0.41 -0.968575 7.27119 -18.5157
171 57 5 -0.82 12.3705 7.97545 -18.7178
172 58 3 0.41 6.21917 -1.1498 -16.9141
173 58 3 0.41 4.7806 -0.585488 -17.0666
174 58 5 -0.82 5.66324 -0.643651 -17.5932
175 59 3 0.41 3.53254 6.49536 -4.17158
176 59 3 0.41 4.76591 7.58343 -4.10562
177 59 5 -0.82 4.42068 6.73862 -4.63508
178 60 3 0.41 12.3589 8.83705 -3.10293
179 60 3 0.41 12.4373 10.0083 -4.30696
180 60 5 -0.82 -1.10731 9.16963 -3.9414
181 61 3 0.41 6.83769 2.84438 16.5398
182 61 3 0.41 5.55214 1.84321 16.4923
183 61 5 -0.82 6.1799 2.36866 15.9516
184 62 3 0.41 8.01274 1.30712 -7.91403
185 62 3 0.41 8.772 2.02111 -6.65969
186 62 5 -0.82 8.73073 1.14542 -7.15324
187 63 3 0.41 5.46095 8.81573 19.205
188 63 3 0.41 6.00894 8.63379 20.5531
189 63 5 -0.82 6.13082 8.21615 19.651
190 64 3 0.41 2.73707 4.31801 7.12971
191 64 3 0.41 1.97386 4.23099 5.74569
192 64 5 -0.82 2.85124 4.00849 6.16635
193 65 3 0.41 1.96586 9.96356 5.29994
194 65 3 0.41 1.89026 11.2911 4.45586
195 65 5 -0.82 1.52318 10.3405 4.45961
196 66 3 0.41 7.40174 9.59009 -0.059294
197 66 3 0.41 8.16669 8.71574 -1.27302
198 66 5 -0.82 7.29 9.15707 -0.977505
199 67 3 0.41 7.7722 11.6899 20.0379
200 67 3 0.41 6.24882 11.5337 20.5375
201 67 5 -0.82 6.85781 11.5644 19.7255
202 68 3 0.41 3.66817 12.3063 20.6146
203 68 3 0.41 3.08465 12.3664 19.155
204 68 5 -0.82 3.81241 -1.2145 19.7486
205 69 3 0.41 9.42367 9.57651 -12.8767
206 69 3 0.41 8.55967 9.81948 -11.476
207 69 5 -0.82 9.4593 9.52324 -11.8685
208 70 3 0.41 3.93881 -0.915336 -6.67583
209 70 3 0.41 4.47279 11.6921 -6.15567
210 70 5 -0.82 4.15138 12.1688 -6.94476
211 71 3 0.41 4.3784 3.93531 9.37465
212 71 3 0.41 3.84591 5.40232 8.73982
213 71 5 -0.82 3.59316 4.4575 8.93661
214 72 3 0.41 4.89131 7.73638 12.099
215 72 3 0.41 4.44328 7.72031 10.5799
216 72 5 -0.82 4.11146 7.41231 11.5261
217 73 3 0.41 7.10867 11.1689 -6.78128
218 73 3 0.41 7.38442 12.4517 -7.9757
219 73 5 -0.82 7.77931 11.8394 -7.29491
220 74 3 0.41 10.387 4.94441 8.47447
221 74 3 0.41 8.79308 4.67174 8.12615
222 74 5 -0.82 9.6222 5.26895 7.87187
223 75 3 0.41 11.6777 7.90376 -10.0161
224 75 3 0.41 -0.994798 7.89203 -10.9519
225 75 5 -0.82 -1.38431 7.47527 -10.1411
226 76 3 0.41 7.15984 2.45463 -9.43224
227 76 3 0.41 5.74015 1.86706 -9.01463
228 76 5 -0.82 6.75493 1.6203 -9.10453
229 77 3 0.41 4.86661 1.43884 12.6777
230 77 3 0.41 5.78255 0.397201 13.4293
231 77 5 -0.82 5.71611 0.904972 12.517
232 78 3 0.41 11.5538 5.28974 -16.6372
233 78 3 0.41 10.2816 6.41801 -17.0307
234 78 5 -0.82 11.0122 5.72066 -17.4021
235 79 3 0.41 7.21272 -0.699603 8.70871
236 79 3 0.41 7.48915 0.570985 9.63171
237 79 5 -0.82 6.80406 0.222301 9.00353
238 80 3 0.41 7.56418 2.10722 -14.9897
239 80 3 0.41 6.04659 2.32536 -14.5794
240 80 5 -0.82 6.94692 2.7636 -14.4775
241 81 3 0.41 0.439704 2.52782 1.26132
242 81 3 0.41 1.29637 3.28626 2.29422
243 81 5 -0.82 1.16601 2.30381 1.94886
244 82 3 0.41 -0.972461 5.89105 11.6967
245 82 3 0.41 12.4719 5.55538 10.254
246 82 5 -0.82 12.2887 5.42086 11.2325
247 83 3 0.41 9.50426 7.46869 8.54978
248 83 3 0.41 9.61484 8.99482 8.01841
249 83 5 -0.82 9.07525 8.13592 7.90554
250 84 3 0.41 2.85766 1.66022 10.5454
251 84 3 0.41 2.55273 0.122066 10.3142
252 84 5 -0.82 2.99224 0.730231 10.9822
253 85 3 0.41 10.0094 5.21299 23.0248
254 85 3 0.41 9.56884 6.40758 22.0085
255 85 5 -0.82 9.99731 5.45822 22.0341
256 86 3 0.41 12.1494 3.63875 -11.8334
257 86 3 0.41 12.3101 2.09395 -11.5295
258 86 5 -0.82 12.1446 2.69012 -12.286
259 87 3 0.41 6.99308 2.82436 3.96961
260 87 3 0.41 7.69222 3.9929 3.06909
261 87 5 -0.82 7.74049 2.98303 3.30703
262 88 3 0.41 -1.13941 10.4312 21.7485
263 88 3 0.41 -0.253471 9.80481 22.9323
264 88 5 -0.82 -0.187294 10.3686 22.0657
265 89 3 0.41 9.22566 9.34921 -6.99428
266 89 3 0.41 9.26205 9.90734 -8.51156
267 89 5 -0.82 8.75403 9.22373 -7.91744
268 90 3 0.41 2.03855 1.6163 -14.2875
269 90 3 0.41 0.646639 1.01666 -14.8037
270 90 5 -0.82 1.62287 1.01514 -15.0217
271 91 3 0.41 4.89227 1.34959 5.01904
272 91 3 0.41 5.38771 0.655644 3.67645
273 91 5 -0.82 5.67254 1.19869 4.426
274 92 3 0.41 -0.441921 2.03875 5.63454
275 92 3 0.41 -1.41921 1.92548 6.81632
276 92 5 -0.82 -1.30597 2.48732 5.98651
277 93 3 0.41 -0.298519 10.1723 17.7559
278 93 3 0.41 -1.43894 10.1604 16.5159
279 93 5 -0.82 -0.500337 10.4309 16.7613
280 94 3 0.41 0.272432 2.09649 -1.25409
281 94 3 0.41 0.809047 3.57265 -0.772157
282 94 5 -0.82 1.02086 2.7486 -1.33128
283 95 3 0.41 2.30872 5.16578 14.207
284 95 3 0.41 3.73626 4.79978 13.3369
285 95 5 -0.82 3.35402 4.96252 14.2873
286 96 3 0.41 6.38549 -1.0427 11.9463
287 96 3 0.41 8.02096 -1.23518 11.7925
288 96 5 -0.82 7.20872 12.4922 12.303
289 97 3 0.41 -1.06721 3.04506 21.8944
290 97 3 0.41 -1.04161 4.1593 22.9265
291 97 5 -0.82 -1.19944 4.03344 21.9316
292 98 3 0.41 7.74964 1.4534 -19.7692
293 98 3 0.41 8.69556 1.46017 -21.0622
294 98 5 -0.82 8.17593 2.10949 -20.389
295 99 3 0.41 5.33289 8.57642 14.1332
296 99 3 0.41 6.21209 7.32433 13.6955
297 99 5 -0.82 5.83436 8.17114 13.3046
298 100 3 0.41 3.10901 2.28612 1.78378
299 100 3 0.41 4.57025 1.66723 1.94117
300 100 5 -0.82 4.09027 2.56766 1.84823
301 101 3 0.41 -1.03063 11.9603 3.52472
302 101 3 0.41 0.0236935 11.5205 4.5538
303 101 5 -0.82 -0.537231 12.3053 4.3429
304 102 3 0.41 4.34523 9.20284 -18.9134
305 102 3 0.41 2.69031 9.31939 -19.2949
306 102 5 -0.82 3.58789 8.8585 -19.4482
307 103 3 0.41 4.90677 9.09092 5.83115
308 103 3 0.41 6.50995 9.11802 5.51441
309 103 5 -0.82 5.68651 9.69421 5.73307
310 104 3 0.41 0.674364 12.4568 0.366208
311 104 3 0.41 -0.857496 12.1997 0.912853
312 104 5 -0.82 0.115637 11.941 1.09502
313 105 3 0.41 0.154804 3.18578 13.3639
314 105 3 0.41 1.46414 3.57568 12.4948
315 105 5 -0.82 1.09177 2.83737 13.137
316 106 3 0.41 5.61924 3.9243 -3.19739
317 106 3 0.41 5.48532 2.44422 -3.75874
318 106 5 -0.82 5.06749 3.35684 -3.82432
319 107 3 0.41 11.8973 -0.292721 1.14113
320 107 3 0.41 11.0308 12.4651 0.767478
321 107 5 -0.82 11.6203 -0.82467 0.3232
322 108 3 0.41 -0.132825 3.60166 -19.5368
323 108 3 0.41 0.891166 2.30661 -19.6206
324 108 5 -0.82 0.0381691 2.7623 -20.0517
325 109 3 0.41 9.29973 -1.40963 -22.2923
326 109 3 0.41 10.5727 11.8836 -21.5353
327 109 5 -0.82 10.3216 -1.48026 -22.2873
328 110 3 0.41 7.06553 9.72016 -5.32598
329 110 3 0.41 5.43886 10.1107 -5.6904
330 110 5 -0.82 6.38217 10.2878 -5.91064
331 111 3 0.41 2.3004 0.964177 -4.64363
332 111 3 0.41 1.3196 -0.0871242 -5.30135
333 111 5 -0.82 2.18646 0.41002 -5.53205
334 112 3 0.41 10.3639 1.99341 -15.0475
335 112 3 0.41 11.2775 3.35481 -15.462
336 112 5 -0.82 10.6868 2.58593 -15.8271
337 113 3 0.41 3.38127 2.89428 20.3306
338 113 3 0.41 3.02452 2.58958 18.8695
339 113 5 -0.82 3.32347 2.09108 19.7001
340 114 3 0.41 6.73816 10.2252 -17.2012
341 114 3 0.41 6.62015 8.72464 -17.9228
342 114 5 -0.82 6.29389 9.66489 -17.9796
343 115 3 0.41 1.80178 3.13951 -4.78767
344 115 3 0.41 3.42614 3.28276 -4.63519
345 115 5 -0.82 2.68677 3.29191 -5.32047
346 116 3 0.41 10.0499 11.4755 16.9308
347 116 3 0.41 10.5131 11.9183 18.4703
348 116 5 -0.82 10.8345 11.9149 17.4612
349 117 3 0.41 7.5042 3.68202 -19.4965
350 117 3 0.41 6.51125 5.03275 -19.195
351 117 5 -0.82 7.46212 4.70769 -19.5063
352 118 3 0.41 5.23867 8.75763 -1.56618
353 118 3 0.41 5.96685 8.49968 -2.8149
354 118 5 -0.82 5.03818 8.34496 -2.45824
355 119 3 0.41 -0.710258 10.5198 -1.27738
356 119 3 0.41 -1.22924 11.7809 -2.00477
357 119 5 -0.82 -0.423228 11.1717 -1.99149
358 120 3 0.41 11.3618 -0.59397 16.5524
359 120 3 0.41 11.7462 0.585196 15.7396
360 120 5 -0.82 11.0461 0.345143 16.4177
361 121 3 0.41 6.59703 4.35205 -14.328
362 121 3 0.41 5.44218 5.13571 -13.5942
363 121 5 -0.82 6.15524 5.29416 -14.3105
364 122 3 0.41 8.91125 7.08378 10.1988
365 122 3 0.41 9.48353 8.43585 10.6434
366 122 5 -0.82 9.76307 7.48184 10.5615
367 123 3 0.41 3.81861 1.32576 -2.75946
368 123 3 0.41 2.22712 1.84894 -2.36837
369 123 5 -0.82 2.80996 1.40039 -3.02669
370 124 3 0.41 11.5155 9.64543 0.204174
371 124 3 0.41 9.90254 10.1832 -0.209853
372 124 5 -0.82 10.747 10.3545 0.314818
373 125 3 0.41 2.88888 1.41274 -21.8179
374 125 3 0.41 3.6606 2.76555 -21.3608
375 125 5 -0.82 3.05139 2.362 -22.1255
376 126 3 0.41 0.691189 2.43872 -10.8669
377 126 3 0.41 1.31117 0.968033 -10.9604
378 126 5 -0.82 1.03748 1.75537 -11.525
379 127 3 0.41 0.927737 10.3276 12.6255
380 127 3 0.41 1.41155 11.6701 11.7818
381 127 5 -0.82 1.00501 11.3344 12.624
382 128 3 0.41 9.47208 4.80422 11.5622
383 128 3 0.41 10.7529 4.42106 10.9437
384 128 5 -0.82 9.80589 4.31319 10.7391
385 129 3 0.41 10.7902 10.9102 11.6001
386 129 3 0.41 12.1931 11.5183 11.8035
387 129 5 -0.82 11.7396 10.7755 11.28
388 130 3 0.41 0.535701 -0.624021 -8.88612
389 130 3 0.41 1.1597 0.83605 -8.79156
390 130 5 -0.82 1.01223 0.0505968 -9.48536
391 131 3 0.41 4.7189 11.3344 -19.4149
392 131 3 0.41 6.15012 10.5886 -19.3621
393 131 5 -0.82 5.54452 11.1097 -20.0271
394 132 3 0.41 11.4551 4.03461 -2.76169
395 132 3 0.41 10.5267 2.82201 -2.72389
396 132 5 -0.82 11.4848 3.04193 -2.72216
397 133 3 0.41 -0.316063 4.01877 5.74453
398 133 3 0.41 0.303263 5.00217 6.90687
399 133 5 -0.82 0.316664 4.76601 5.96487
400 134 3 0.41 -0.158884 7.7935 1.90953
401 134 3 0.41 -1.36799 7.07836 1.13752
402 134 5 -0.82 -0.507572 6.86125 1.65097
403 135 3 0.41 3.08751 5.02628 -14.6797
404 135 3 0.41 3.02128 3.43532 -14.3084
405 135 5 -0.82 3.15736 4.07751 -15.1176
406 136 3 0.41 12.4542 0.117189 11.0504
407 136 3 0.41 -0.182175 -0.792469 10.8384
408 136 5 -0.82 -0.90035 -0.506853 11.5063
409 137 3 0.41 4.36462 0.569822 -0.989209
410 137 3 0.41 4.42558 -0.852171 -0.335576
411 137 5 -0.82 3.89243 0.0433733 -0.287783
412 138 3 0.41 4.7356 -0.594818 11.2567
413 138 3 0.41 5.34873 -0.777606 9.7416
414 138 5 -0.82 4.92007 -1.27478 10.5095
415 139 3 0.41 6.0671 5.3341 21.9977
416 139 3 0.41 6.7147 4.31237 23.1037
417 139 5 -0.82 6.70736 4.56733 22.0979
418 140 3 0.41 7.97643 9.92785 -9.55777
419 140 3 0.41 6.48426 9.91896 -9.64077
420 140 5 -0.82 7.2706 9.81645 -10.2458
421 141 3 0.41 6.12469 10.6699 -21.4255
422 141 3 0.41 6.37252 9.31283 -22.1068
423 141 5 -0.82 6.77257 10.2598 -22.1219
424 142 3 0.41 7.76016 7.82956 -13.2254
425 142 3 0.41 7.47289 6.15434 -13.2964
426 142 5 -0.82 8.00654 6.89378 -12.8302
427 143 3 0.41 11.6715 11.7327 13.9852
428 143 3 0.41 -1.19516 11.427 15.0823
429 143 5 -0.82 -1.35561 11.4267 14.0626
430 144 3 0.41 4.31846 -0.446696 -18.8354
431 144 3 0.41 2.96707 -1.12936 -19.1906
432 144 5 -0.82 3.6513 -0.478834 -19.5713
433 145 3 0.41 12.3495 9.72298 -18.5837
434 145 3 0.41 11.2175 10.9237 -18.3223
435 145 5 -0.82 12.0374 10.6528 -18.8509
436 146 3 0.41 3.53349 2.83229 -16.0796
437 146 3 0.41 4.06363 1.36681 -15.6097
438 146 5 -0.82 3.88774 1.90875 -16.4021
439 147 3 0.41 1.5967 -0.915737 1.95876
440 147 3 0.41 1.62004 0.6052 1.95177
441 147 5 -0.82 2.06049 -0.158334 2.44322
442 148 3 0.41 8.09196 3.06246 18.9155
443 148 3 0.41 8.5251 2.98779 17.3294
444 148 5 -0.82 7.77245 3.29719 17.948
445 149 3 0.41 6.06136 0.385441 -2.52589
446 149 3 0.41 5.91478 1.57803 -1.6406
447 149 5 -0.82 5.30884 1.05388 -2.30174
448 150 3 0.41 8.86889 5.36145 -14.8735
449 150 3 0.41 8.39459 3.91054 -14.309
450 150 5 -0.82 9.18786 4.53864 -14.3444
451 151 3 0.41 -0.874429 1.31944 14.4025
452 151 3 0.41 11.8996 0.864657 13.559
453 151 5 -0.82 -1.42998 0.480908 14.1857
454 152 3 0.41 6.6094 5.05996 4.88882
455 152 3 0.41 6.91673 6.45902 4.05726
456 152 5 -0.82 7.34674 5.64887 4.49278
457 153 3 0.41 1.62814 -0.599016 15.5394
458 153 3 0.41 0.521886 -0.887172 16.4802
459 153 5 -0.82 0.810623 -1.20255 15.5625
460 154 3 0.41 4.88303 6.75559 -18.0533
461 154 3 0.41 4.71984 7.43801 -19.4899
462 154 5 -0.82 5.3497 6.86402 -18.9516
463 155 3 0.41 3.99092 6.046 15.498
464 155 3 0.41 4.90778 6.07003 16.8681
465 155 5 -0.82 4.54798 6.64293 16.1037
466 156 3 0.41 0.0898023 9.30228 0.339886
467 156 3 0.41 -0.527819 8.36585 -0.729423
468 156 5 -0.82 -0.733052 9.25331 -0.245671
469 157 3 0.41 11.4571 -0.868242 21.8072
470 157 3 0.41 11.1718 -1.48027 23.446
471 157 5 -0.82 10.9724 12.4635 22.4544
472 158 3 0.41 -1.1231 9.41004 -7.57901
473 158 3 0.41 -1.0066 10.9165 -8.07806
474 158 5 -0.82 -1.32011 10.0092 -8.3851
475 159 3 0.41 7.11274 6.79802 -10.3529
476 159 3 0.41 6.65018 8.32145 -10.6676
477 159 5 -0.82 6.36922 7.36635 -10.7799
478 160 3 0.41 8.11505 2.4733 9.28296
479 160 3 0.41 8.80995 2.66904 10.7418
480 160 5 -0.82 8.06416 2.17005 10.2808
481 161 3 0.41 0.515286 0.288541 -0.973749
482 161 3 0.41 2.02314 0.0491974 -0.425109
483 161 5 -0.82 1.13546 -0.329608 -0.492033
484 162 3 0.41 0.998267 4.78851 -7.41225
485 162 3 0.41 -0.228077 4.58618 -6.34776
486 162 5 -0.82 0.180784 4.2556 -7.20604
487 163 3 0.41 9.9403 1.41397 -13.0896
488 163 3 0.41 9.45767 0.0868047 -13.7733
489 163 5 -0.82 10.0743 0.863194 -13.8998
490 164 3 0.41 2.62111 9.29796 -0.823962
491 164 3 0.41 3.58605 8.12893 -1.55353
492 164 5 -0.82 2.63905 8.37049 -1.21592
493 165 3 0.41 7.52318 9.08062 17.4632
494 165 3 0.41 6.05454 9.0291 16.8115
495 165 5 -0.82 6.92981 8.60068 16.7966
496 166 3 0.41 11.2985 6.99778 16.4945
497 166 3 0.41 9.68337 6.77248 16.6957
498 166 5 -0.82 10.5725 6.80597 17.1535
499 167 3 0.41 10.7756 2.93673 -9.07172
500 167 3 0.41 10.3338 4.49122 -8.6207
501 167 5 -0.82 10.1579 3.71445 -9.26092
502 168 3 0.41 3.52792 -1.4807 -8.56272
503 168 3 0.41 2.66731 -0.694834 -9.73712
504 168 5 -0.82 3.51525 -1.15625 -9.49615
505 169 3 0.41 1.19522 9.63631 2.94944
506 169 3 0.41 0.390201 10.357 1.86681
507 169 5 -0.82 0.683171 9.38756 2.07401
508 170 3 0.41 10.6592 -0.300286 -7.03546
509 170 3 0.41 10.0579 12.2899 -7.64163
510 170 5 -0.82 10.8506 -1.09971 -7.65508
511 171 3 0.41 4.14208 2.51038 14.9525
512 171 3 0.41 2.89105 2.31901 13.9195
513 171 5 -0.82 3.85682 2.03709 14.0861
514 172 3 0.41 0.337214 11.9241 22.0931
515 172 3 0.41 0.550196 -0.933935 23.0319
516 172 5 -0.82 0.707906 -1.13651 22.1143
517 173 3 0.41 2.96001 1.43097 5.54059
518 173 3 0.41 2.80557 -0.0704157 6.07113
519 173 5 -0.82 3.14124 0.863329 6.36057
520 174 3 0.41 11.4483 1.64999 18.2673
521 174 3 0.41 11.8058 2.82043 19.3366
522 174 5 -0.82 12.1289 1.93696 18.9815
523 175 3 0.41 -0.787767 0.90088 2.9851
524 175 3 0.41 11.6791 0.253124 3.08314
525 175 5 -0.82 -1.48386 0.322843 2.52794
526 176 3 0.41 11.014 5.83602 -4.0289
527 176 3 0.41 9.98056 6.44785 -3.09291
528 176 5 -0.82 10.2141 5.51689 -3.4841
529 177 3 0.41 2.72425 -0.769357 4.06065
530 177 3 0.41 3.5954 11.9421 4.53725
531 177 5 -0.82 2.92875 -1.3463 4.87123
532 178 3 0.41 -1.0556 12.0168 -22.0387
533 178 3 0.41 -0.644856 -0.675906 -21.341
534 178 5 -0.82 -0.428259 -1.14457 -22.1533
535 179 3 0.41 0.582489 3.61393 -21.4015
536 179 3 0.41 1.97091 3.52995 -22.1547
537 179 5 -0.82 1.07073 4.02883 -22.2464
538 180 3 0.41 5.31433 7.9236 0.854591
539 180 3 0.41 4.35135 6.7865 0.352938
540 180 5 -0.82 5.19106 7.28524 0.086926
541 181 3 0.41 0.859365 -0.444255 -16.4001
542 181 3 0.41 -0.317395 0.371127 -17.2327
543 181 5 -0.82 0.367541 -0.35939 -17.3247
544 182 3 0.41 12.3822 2.88911 -21.8515
545 182 3 0.41 -1.22892 1.46695 -21.2815
546 182 5 -0.82 -1.49199 1.92123 -22.1497
547 183 3 0.41 11.4089 8.82098 -12.2083
548 183 3 0.41 11.3766 7.25814 -12.6559
549 183 5 -0.82 11.7742 8.13097 -12.8995
550 184 3 0.41 6.74543 12.3098 3.73665
551 184 3 0.41 6.82515 -1.12798 5.2485
552 184 5 -0.82 7.36027 -1.14946 4.40381
553 185 3 0.41 10.1274 5.24125 -13.2334
554 185 3 0.41 9.57593 6.1544 -11.959
555 185 5 -0.82 10.3937 5.71783 -12.3405
556 186 3 0.41 7.32746 1.17234 0.329136
557 186 3 0.41 7.80338 2.48151 -0.541618
558 186 5 -0.82 7.05007 1.8529 -0.386065
559 187 3 0.41 3.33559 7.4739 1.96107
560 187 3 0.41 3.3746 9.0476 2.11081
561 187 5 -0.82 3.27038 8.20578 2.67485
562 188 3 0.41 -0.13787 9.56205 -21.7562
563 188 3 0.41 1.46982 9.59789 -22.0946
564 188 5 -0.82 0.613061 9.02002 -22.1419
565 189 3 0.41 6.00489 11.633 18.231
566 189 3 0.41 4.87479 10.6387 17.6068
567 189 5 -0.82 5.524 11.354 17.3981
568 190 3 0.41 5.19738 -0.677038 17.1884
569 190 3 0.41 4.42119 0.115949 18.3632
570 190 5 -0.82 4.65508 0.186881 17.383
571 191 3 0.41 2.83552 -1.30961 13.7909
572 191 3 0.41 4.00642 11.6492 13.3406
573 191 5 -0.82 3.71559 12.2603 14.0989
574 192 3 0.41 0.272994 7.52529 17.1489
575 192 3 0.41 -0.285919 7.17282 18.749
576 192 5 -0.82 -0.45479 7.69217 17.8592
577 193 3 0.41 9.34943 10.5026 13.0104
578 193 3 0.41 8.53619 9.99787 11.6579
579 193 5 -0.82 8.79579 9.68164 12.6248
580 194 3 0.41 7.15388 6.49151 19.5947
581 194 3 0.41 7.59162 5.41814 20.6755
582 194 5 -0.82 7.83331 5.73276 19.7488
583 195 3 0.41 5.8475 1.41463 8.16771
584 195 3 0.41 4.55416 1.83936 7.43154
585 195 5 -0.82 5.5005 2.20515 7.60208
586 196 3 0.41 8.39228 3.34342 -21.7187
587 196 3 0.41 9.6608 4.36389 -21.7652
588 196 5 -0.82 8.83086 4.07828 -22.2764
589 197 3 0.41 11.3437 11.1614 8.41606
590 197 3 0.41 -1.48553 10.21 7.73893
591 197 5 -0.82 11.5716 10.1877 8.16947
592 198 3 0.41 3.62135 1.57029 -12.5381
593 198 3 0.41 2.1778 2.12289 -12.561
594 198 5 -0.82 3.04581 2.2276 -13.0812
595 199 3 0.41 5.33934 11.6158 -13.3725
596 199 3 0.41 4.18781 10.805 -14.3388
597 199 5 -0.82 5.05454 11.3427 -14.3254
598 200 3 0.41 0.448575 11.3735 7.3964
599 200 3 0.41 0.486178 9.77656 7.04386
600 200 5 -0.82 -0.084265 10.5919 7.03738
601 201 3 0.41 10.2142 -1.18158 10.2057
602 201 3 0.41 10.0564 -0.110961 11.1425
603 201 5 -0.82 9.8005 -1.06036 11.1067
604 202 3 0.41 11.2821 11.2254 -14.5818
605 202 3 0.41 11.2702 11.2515 -12.9379
606 202 5 -0.82 10.7466 11.5403 -13.8024
607 203 3 0.41 4.79781 12.0973 6.90241
608 203 3 0.41 4.46963 -0.806461 5.9973
609 203 5 -0.82 5.23011 -1.05706 6.57756
610 204 3 0.41 0.722544 10.935 -18.9377
611 204 3 0.41 0.071561 12.3606 -19.388
612 204 5 -0.82 0.94738 11.8515 -19.3483
613 205 3 0.41 5.09681 0.507197 -5.88717
614 205 3 0.41 3.61163 0.882161 -6.30646
615 205 5 -0.82 4.57002 0.965286 -6.57676
616 206 3 0.41 5.91375 6.0236 15.167
617 206 3 0.41 7.40893 5.81269 15.4374
618 206 5 -0.82 6.78668 5.9569 14.6714
619 207 3 0.41 8.51684 11.5129 -2.06695
620 207 3 0.41 8.92068 10.1133 -2.69499
621 207 5 -0.82 8.65888 11.0278 -2.97789
622 208 3 0.41 2.80925 9.20037 9.63879
623 208 3 0.41 2.42717 10.7911 9.65146
624 208 5 -0.82 2.71366 10.0189 10.243
625 209 3 0.41 4.65573 7.14877 -10.8216
626 209 3 0.41 3.20586 7.76733 -11.1221
627 209 5 -0.82 3.68573 7.13826 -10.4701
628 210 3 0.41 10.0614 6.79031 13.8832
629 210 3 0.41 10.3849 6.65566 12.2572
630 210 5 -0.82 10.1904 6.15226 13.1143
631 211 3 0.41 12.1321 -0.932138 5.23103
632 211 3 0.41 11.675 0.0254552 6.45403
633 211 5 -0.82 11.3492 -0.480262 5.63633
634 212 3 0.41 5.12169 -0.768706 14.6821
635 212 3 0.41 5.7808 0.335726 15.7788
636 212 5 -0.82 6.00651 -0.343656 15.0355
637 213 3 0.41 7.37448 7.42888 -4.53413
638 213 3 0.41 8.09619 8.38533 -3.44479
639 213 5 -0.82 7.2878 8.31556 -4.0975
640 214 3 0.41 1.09839 2.82483 -16.9131
641 214 3 0.41 0.519548 3.28822 -15.4757
642 214 5 -0.82 0.48823 3.47079 -16.4602
643 215 3 0.41 0.525037 11.3687 -6.55179
644 215 3 0.41 0.440317 10.7799 -5.2165
645 215 5 -0.82 0.651874 10.43 -6.1599
646 216 3 0.41 4.34924 6.14284 4.26948
647 216 3 0.41 3.87623 6.55702 5.84756
648 216 5 -0.82 4.46493 6.83355 5.05106
649 217 3 0.41 7.51676 3.81375 -11.4077
650 217 3 0.41 6.36657 4.37497 -10.3832
651 217 5 -0.82 6.51773 3.78549 -11.172
652 218 3 0.41 -0.863205 7.20836 14.7518
653 218 3 0.41 11.7404 6.60056 14.2535
654 218 5 -0.82 12.2724 6.77581 15.077
655 219 3 0.41 10.4707 -1.39348 -2.88589
656 219 3 0.41 11.0382 -1.30432 -1.35543
657 219 5 -0.82 11.3235 -1.43289 -2.31295
658 220 3 0.41 6.15248 4.34248 18.1975
659 220 3 0.41 4.76393 4.6774 18.8849
660 220 5 -0.82 5.27395 4.78612 17.9935
661 221 3 0.41 -0.921732 2.80869 -8.85424
662 221 3 0.41 -0.909121 3.61452 -10.2779
663 221 5 -0.82 -0.315258 3.02631 -9.66243
664 222 3 0.41 1.1681 -0.787527 -22.0011
665 222 3 0.41 1.99347 -0.655393 -20.7807
666 222 5 -0.82 2.08117 -0.464517 -21.7724
667 223 3 0.41 3.12887 -1.0826 -12.1671
668 223 3 0.41 2.2352 12.0748 -11.172
669 223 5 -0.82 2.15489 -1.35663 -12.0204
670 224 3 0.41 3.96345 -0.113109 1.78951
671 224 3 0.41 4.7641 -1.24421 2.66352
672 224 5 -0.82 4.85467 -0.347275 2.20518
673 225 3 0.41 12.175 10.1859 3.36857
674 225 3 0.41 11.278 10.3612 2.10157
675 225 5 -0.82 11.8526 10.9103 2.75268
676 226 3 0.41 8.62415 8.4706 13.9806
677 226 3 0.41 8.18572 7.87971 15.3685
678 226 5 -0.82 9.00572 8.07186 14.8468
679 227 3 0.41 9.74109 9.51149 18.4516
680 227 3 0.41 8.34394 9.67353 19.3209
681 227 5 -0.82 8.76313 9.82935 18.3957
682 228 3 0.41 4.61848 4.9316 -11.3834
683 228 3 0.41 3.84966 3.87967 -12.4631
684 228 5 -0.82 4.13344 4.83506 -12.2875
685 229 3 0.41 -1.18665 5.17096 -21.7752
686 229 3 0.41 11.7016 4.43893 -20.7789
687 229 5 -0.82 11.9678 4.52257 -21.7674
688 230 3 0.41 10.1937 0.123276 -5.00513
689 230 3 0.41 10.5168 1.68661 -4.92747
690 230 5 -0.82 10.9484 0.780046 -5.01595
691 231 3 0.41 7.25821 3.84613 -6.91989
692 231 3 0.41 7.98801 4.85981 -7.82635
693 231 5 -0.82 8.17452 4.18407 -7.0696
694 232 3 0.41 -1.45677 -1.07022 -7.76949
695 232 3 0.41 -0.37786 -0.489392 -6.75878
696 232 5 -0.82 -0.511824 -1.2199 -7.42713
697 233 3 0.41 11.5176 4.1091 -5.38743
698 233 3 0.41 11.2743 3.06396 -6.65428
699 233 5 -0.82 10.7897 3.62354 -5.94733
700 234 3 0.41 8.87195 12.2813 2.39548
701 234 3 0.41 10.3784 11.9713 2.85853
702 234 5 -0.82 9.78976 -1.29917 2.54737
703 235 3 0.41 -1.48156 7.94691 9.55659
704 235 3 0.41 11.1482 7.36247 9.82561
705 235 5 -0.82 11.9304 7.14974 9.24922
706 236 3 0.41 10.2314 5.64403 3.14992
707 236 3 0.41 9.02519 5.57356 2.07092
708 236 5 -0.82 9.67463 4.98024 2.6059
709 237 3 0.41 10.4187 10.2239 9.75132
710 237 3 0.41 9.11877 11.0027 9.34743
711 237 5 -0.82 9.44403 10.2144 9.96567
712 238 3 0.41 5.3948 7.62062 3.74228
713 238 3 0.41 6.44441 8.50574 2.98004
714 238 5 -0.82 6.12949 7.56022 3.10437
715 239 3 0.41 6.98354 0.00966901 2.12482
716 239 3 0.41 7.58393 1.50195 2.31848
717 239 5 -0.82 7.67437 0.681809 1.78745
718 240 3 0.41 8.66681 12.2994 0.211227
719 240 3 0.41 8.92967 -0.42677 -0.778594
720 240 5 -0.82 8.63115 -1.4205 -0.785965
721 241 3 0.41 -1.42132 2.6312 3.95718
722 241 3 0.41 12.2534 4.05945 3.33536
723 241 5 -0.82 12.1656 3.08472 3.15692
724 242 3 0.41 5.13757 10.4697 4.27824
725 242 3 0.41 4.7052 10.4412 2.79037
726 242 5 -0.82 4.70966 11.0999 3.63143
727 243 3 0.41 -0.86264 0.49638 -19.1511
728 243 3 0.41 11.7489 0.108343 -19.725
729 243 5 -0.82 -1.27663 0.22658 -20.0018
730 244 3 0.41 7.18058 9.94388 22.2201
731 244 3 0.41 5.81236 9.34883 22.8484
732 244 5 -0.82 6.44015 9.20992 22.0865
733 245 3 0.41 2.95959 6.16455 -21.3855
734 245 3 0.41 4.28217 5.39142 -21.8682
735 245 5 -0.82 3.59604 6.08807 -22.1823
736 246 3 0.41 12.1603 8.35358 18.5924
737 246 3 0.41 10.8333 8.55674 19.3519
738 246 5 -0.82 11.4101 9.06907 18.6803
739 247 3 0.41 9.73581 11.2098 14.8517
740 247 3 0.41 9.55228 12.4967 13.9578
741 247 5 -0.82 9.98002 11.5777 13.9074
742 248 3 0.41 7.0378 8.425 10.5442
743 248 3 0.41 6.34561 9.57154 9.72565
744 248 5 -0.82 6.4267 9.20425 10.695
745 249 3 0.41 9.19052 12.2587 -13.7058
746 249 3 0.41 7.73856 -1.21627 -13.1774
747 249 5 -0.82 8.2643 -1.42375 -14.0107
748 250 3 0.41 1.57826 4.98466 22.2161
749 250 3 0.41 0.98126 6.39726 22.8736
750 250 5 -0.82 1.28424 5.90375 22.0151
751 251 3 0.41 2.38637 4.61299 11.1764
752 251 3 0.41 1.21174 5.68288 11.0943