ITEM: TIMESTEP
65000
ITEM: NUMBER OF ATOMS
1360
ITEM: BOX BOUNDS pp pp pp
-1.5000000000000000e+00 1.2500000000000000e+01
-1.5000000000000000e+00 1.2500000000000000e+01
-2.7500000000000000e+01 2.7500000000000000e+01
ITEM: ATOMS id mol type q x y z
1 1 3 0.41 5.72538 8.90365 9.48754
2 1 3 0.41 4.39454 9.82914 9.40646
3 1 5 -0.82 4.81252 9.0816 9.97456
4 2 3 0.41 4.99539 9.57806 -14.5873
5 2 3 0.41 4.72164 10.7385 -13.4485
6 2 5 -0.82 4.48105 9.75217 -13.7318
7 3 3 0.41 9.89605 1.63808 17.9511
8 3 3 0.41 8.79076 1.56263 16.8331
9 3 5 -0.82 9.70921 1.91142 17.0172
10 4 3 0.41 3.13787 4.33304 -16.5664
11 4 3 0.41 4.06299 5.416 -17.3561
12 4 5 -0.82 3.84582 5.04006 -16.4592
13 5 3 0.41 1.48335 7.27011 -4.94331
14 5 3 0.41 1.63581 8.20671 -3.62131
15 5 5 -0.82 2.18599 7.68026 -4.29199
16 6 3 0.41 6.74217 9.09901 -18.1962
17 6 3 0.41 7.42383 8.33869 -17.0817
18 6 5 -0.82 7.707 8.96071 -17.8032
19 7 3 0.41 -0.0865675 -0.0948221 -21.8192
20 7 3 0.41 -1.45684 0.538091 -21.5043
21 7 5 -0.82 -0.50402 0.818281 -21.6824
22 8 3 0.41 4.89705 8.89699 16.04
23 8 3 0.41 6.3515 9.49213 15.8117
24 8 5 -0.82 5.48384 9.36972 15.3184
25 9 3 0.41 -1.0758 11.8105 -14.7081
26 9 3 0.41 -1.2661 11.0154 -13.2663
27 9 5 -0.82 -0.796803 11.7726 -13.7218
28 10 3 0.41 7.93735 1.78859 4.49737
29 10 3 0.41 8.08049 1.70214 2.82627
30 10 5 -0.82 7.89886 2.34923 3.65537
31 11 3 0.41 3.25982 4.15732 -6.43348
32 11 3 0.41 3.71443 2.73039 -6.94915
33 11 5 -0.82 3.30825 3.63068 -7.32217
34 12 3 0.41 4.70495 -1.25024 -15.7272
35 12 3 0.41 3.77146 11.3658 -15.6956
36 12 5 -0.82 4.64092 11.7349 -15.9753
37 13 3 0.41 0.799781 9.45006 -2.69061
38 13 3 0.41 -0.22539 10.4 -3.52917
39 13 5 -0.82 0.736778 10.0474 -3.49844
40 14 3 0.41 1.32971 7.21455 -14.6519
41 14 3 0.41 0.821861 8.53704 -13.8449
42 14 5 -0.82 0.515643 7.62621 -14.2493
43 15 3 0.41 7.99763 1.39946 12.2893
44 15 3 0.41 8.84543 2.68241 12.0804
45 15 5 -0.82 8.79602 1.74439 11.7378
46 16 3 0.41 -0.623038 2.42641 8.16711
47 16 3 0.41 -1.29353 2.39071 6.6311
48 16 5 -0.82 -1.28658 1.91023 7.55836
49 17 3 0.41 -0.224827 10.5183 22.1821
50 17 3 0.41 12.3475 9.98101 22.4799
51 17 5 -0.82 -0.757978 9.65944 22.2225
52 18 3 0.41 3.84642 1.14123 -12.8626
53 18 3 0.41 4.13463 0.793386 -11.3389
54 18 5 -0.82 3.65269 0.469677 -12.1628
55 19 3 0.41 12.2337 6.71551 6.86904
56 19 3 0.41 -0.350046 6.10665 7.18869
57 19 5 -0.82 -1.3273 6.02869 7.45339
58 20 3 0.41 -0.72322 10.6567 -10.1466
59 20 3 0.41 12.2178 10.3786 -11.3203
60 20 5 -0.82 -0.971504 10.9554 -11.0952
61 21 3 0.41 4.46225 8.77024 21.8205
62 21 3 0.41 4.49784 7.25206 22.3993
63 21 5 -0.82 5.06512 7.99565 22.0225
64 22 3 0.41 8.6669 11.9479 -17.0199
65 22 3 0.41 9.05131 -0.553743 -17.0601
66 22 5 -0.82 9.39018 -1.43157 -17.3602
67 23 3 0.41 5.62229 2.88984 -13.4876
68 23 3 0.41 4.04269 3.23253 -13.7917
69 23 5 -0.82 4.75791 2.5107 -13.8962
70 24 3 0.41 8.70281 0.693466 -19.3823
71 24 3 0.41 8.49391 -0.851208 -19.7375
72 24 5 -0.82 9.01242 0.00994745 -20.0543
73 25 3 0.41 6.59967 5.66922 -14.1585
74 25 3 0.41 5.44181 5.33475 -15.3055
75 25 5 -0.82 5.73205 5.99536 -14.5759
76 26 3 0.41 -0.334484 10.014 -5.93986
77 26 3 0.41 12.1237 9.40896 -5.72532
78 26 5 -0.82 -1.34959 10.2396 -5.9112
79 27 3 0.41 9.13749 8.41427 -11.9286
80 27 3 0.41 10.171 9.10115 -10.766
81 27 5 -0.82 9.25765 9.17936 -11.2234
82 28 3 0.41 7.11375 7.15193 -8.54666
83 28 3 0.41 6.3421 7.50041 -7.23734
84 28 5 -0.82 7.03043 6.86896 -7.5702
85 29 3 0.41 8.44709 9.15944 20.4274
86 29 3 0.41 8.59718 10.3789 19.4535
87 29 5 -0.82 9.04558 9.4626 19.6335
88 30 3 0.41 11.4482 6.93723 10.786
89 30 3 0.41 10.1959 6.27571 11.5459
90 30 5 -0.82 11.0172 6.82743 11.672
91 31 3 0.41 10.2397 4.23123 -19.1363
92 31 3 0.41 8.96736 3.3081 -19.3983
93 31 5 -0.82 9.57763 3.91856 -19.8691
94 32 3 0.41 10.9565 2.1868 -20.8091
95 32 3 0.41 10.2798 0.847111 -21.4865
96 32 5 -0.82 10.6019 1.76988 -21.6868
97 33 3 0.41 5.75059 0.386863 -18.9895
98 33 3 0.41 4.47101 -0.519802 -19.4859
99 33 5 -0.82 4.97403 0.37235 -19.6656
100 34 3 0.41 4.39153 8.68719 6.59963
101 34 3 0.41 6.00844 8.63333 6.05353
102 34 5 -0.82 5.03061 8.60934 5.82608
103 35 3 0.41 6.99593 4.80408 16.7304
104 35 3 0.41 7.19561 3.78308 17.9673
105 35 5 -0.82 6.48155 4.24431 17.4248
106 36 3 0.41 4.83352 9.58723 -8.27985
107 36 3 0.41 5.14813 10.5143 -7.10903
108 36 5 -0.82 4.43599 10.4184 -7.82214
109 37 3 0.41 2.2304 -1.22912 21.8298
110 37 3 0.41 0.882287 12.2736 21.3171
111 37 5 -0.82 1.69814 11.9047 21.7368
112 38 3 0.41 10.0855 0.368493 3.59822
113 38 3 0.41 11.5583 0.864221 3.93392
114 38 5 -0.82 10.6226 0.741379 4.38686
115 39 3 0.41 4.91688 2.86244 -15.7991
116 39 3 0.41 5.2281 3.18381 -17.3765
117 39 5 -0.82 5.6558 2.95281 -16.4461
118 40 3 0.41 1.63446 -0.361701 -20.6614
119 40 3 0.41 1.39147 0.601568 -19.339
120 40 5 -0.82 1.84409 -0.260035 -19.6485
121 41 3 0.41 0.00704623 7.28954 -10.0545
122 41 3 0.41 -0.593602 6.17793 -9.0519
123 41 5 -0.82 0.215648 6.73079 -9.24696
124 42 3 0.41 3.30797 -0.434883 8.17899
125 42 3 0.41 4.50373 0.451799 8.72257
126 42 5 -0.82 4.26833 -0.178628 7.98785
127 43 3 0.41 10.299 9.33156 17.6019
128 43 3 0.41 10.5323 7.99429 16.6971
129 43 5 -0.82 9.82769 8.55516 17.1147
130 44 3 0.41 3.43514 1.52094 -19.2169
131 44 3 0.41 2.59545 2.17302 -20.356
132 44 5 -0.82 3.10183 2.43839 -19.4682
133 45 3 0.41 7.91287 -1.40819 -6.98249
134 45 3 0.41 7.31578 11.5236 -7.89341
135 45 5 -0.82 7.04781 12.1149 -7.13851
136 46 3 0.41 5.5498 4.96176 18.5771
137 46 3 0.41 4.43544 6.10348 18.9745
138 46 5 -0.82 4.7483 5.15917 19.2059
139 47 3 0.41 2.62446 0.356012 3.50843
140 47 3 0.41 1.23816 0.975218 3.75567
141 47 5 -0.82 1.88982 0.325587 4.17377
142 48 3 0.41 0.506614 7.24959 22.6804
143 48 3 0.41 2.00218 6.88267 22.0722
144 48 5 -0.82 1.21453 7.47283 21.9682
145 49 3 0.41 -0.461416 6.51624 -5.76796
146 49 3 0.41 0.291937 5.88035 -4.59958
147 49 5 -0.82 0.508897 6.27225 -5.5524
148 50 3 0.41 10.4146 4.7282 13.2612
149 50 3 0.41 11.9379 4.58343 13.6355
150 50 5 -0.82 11.0189 4.57635 14.0628
151 51 3 0.41 1.5826 9.11371 13.403
152 51 3 0.41 2.8613 9.29932 14.5035
153 51 5 -0.82 2.46608 8.73709 13.7423
154 52 3 0.41 6.47365 1.24942 -7.88856
155 52 3 0.41 7.96347 0.75651 -7.83961
156 52 5 -0.82 7.34822 1.37062 -8.38999
157 53 3 0.41 8.52211 11.193 5.16696
158 53 3 0.41 8.90266 11.1311 6.67284
159 53 5 -0.82 8.63105 11.7791 5.95782
160 54 3 0.41 9.25057 9.76307 14.8015
161 54 3 0.41 9.85358 11.2114 14.4828
162 54 5 -0.82 10.1261 10.2218 14.4982
163 55 3 0.41 3.58487 12.1261 9.31958
164 55 3 0.41 3.51459 11.2328 7.95944
165 55 5 -0.82 3.8214 11.2103 8.96118
166 56 3 0.41 -1.2737 2.32868 0.0687662
167 56 3 0.41 0.355261 2.59442 -0.227542
168 56 5 -0.82 -0.336668 2.42183 0.529023
169 57 3 0.41 0.979283 11.8941 -22.4676
170 57 3 0.41 2.30088 -1.2419 -22.3483
171 57 5 -0.82 1.33695 -1.24086 -22.0599
172 58 3 0.41 10.9451 -1.10398 -18.4607
173 58 3 0.41 11.6605 0.148988 -19.1547
174 58 5 -0.82 11.7266 -0.841009 -19.0208
175 59 3 0.41 4.63663 0.094966 10.4876
176 59 3 0.41 3.65163 -0.197487 11.5565
177 59 5 -0.82 4.0428 -0.724002 10.7642
178 60 3 0.41 -1.03439 1.0676 -6.61726
179 60 3 0.41 0.291614 1.71914 -6.15173
180 60 5 -0.82 -0.215053 1.46408 -7.00359
181 61 3 0.41 4.49434 6.87557 16.6547
182 61 3 0.41 3.78212 7.83804 17.6123
183 61 5 -0.82 4.69178 7.70094 17.227
184 62 3 0.41 0.181339 0.249233 -1.27283
185 62 3 0.41 1.28558 -0.875655 -1.09116
186 62 5 -0.82 0.502035 -0.427819 -0.614846
187 63 3 0.41 7.99402 2.77929 19.752
188 63 3 0.41 8.66188 4.13662 20.105
189 63 5 -0.82 8.43435 3.58716 19.321
190 64 3 0.41 0.213663 9.26607 3.38393
191 64 3 0.41 0.812337 9.20037 2.04478
192 64 5 -0.82 0.248087 9.87942 2.53479
193 65 3 0.41 5.28225 -0.411708 -1.2029
194 65 3 0.41 4.56779 12.429 -2.05171
195 65 5 -0.82 4.70182 -0.558168 -2.03542
196 66 3 0.41 4.15501 6.5573 4.3813
197 66 3 0.41 5.50404 6.46504 3.55729
198 66 5 -0.82 5.02512 6.04576 4.30701
199 67 3 0.41 7.81848 6.83864 16.6802
200 67 3 0.41 8.72831 5.59027 16.0807
201 67 5 -0.82 7.98459 6.27947 15.8317
202 68 3 0.41 1.4012 4.6557 20.3364
203 68 3 0.41 1.16703 4.61009 18.707
204 68 5 -0.82 1.68524 5.10331 19.4294
205 69 3 0.41 11.6851 7.50737 -18.7536
206 69 3 0.41 -0.890577 6.98598 -19.2073
207 69 5 -0.82 -1.30522 7.7719 -18.7004
208 70 3 0.41 7.14571 6.13581 -18.8495
209 70 3 0.41 5.90602 6.92819 -19.1863
210 70 5 -0.82 6.78406 6.71366 -19.591
211 71 3 0.41 5.45662 7.25867 10.5182
212 71 3 0.41 4.46096 6.17867 10.5548
213 71 5 -0.82 5.45866 6.24907 10.6154
214 72 3 0.41 2.26513 2.14424 19.1723
215 72 3 0.41 1.41047 0.83604 18.8733
216 72 5 -0.82 1.45154 1.6057 19.5286
217 73 3 0.41 9.74889 12.0819 -12.9798
218 73 3 0.41 10.3183 10.6653 -12.3488
219 73 5 -0.82 10.2885 11.688 -12.2694
220 74 3 0.41 9.19762 -0.0572857 -1.81637
221 74 3 0.41 8.89145 -0.5265 -0.334548
222 74 5 -0.82 8.44345 -0.351984 -1.22515
223 75 3 0.41 10.4246 8.17671 -8.84173
224 75 3 0.41 10.364 8.17516 -7.21708
225 75 5 -0.82 9.82113 8.41953 -8.03377
226 76 3 0.41 5.07071 8.6216 -16.1942
227 76 3 0.41 5.96373 7.40333 -15.3439
228 76 5 -0.82 5.9865 8.31047 -15.8353
229 77 3 0.41 8.51857 12.1927 12.8964
230 77 3 0.41 7.85918 -1.01127 14.0772
231 77 5 -0.82 8.52178 12.2206 13.9118
232 78 3 0.41 -1.26604 2.98537 -10.9619
233 78 3 0.41 -0.595159 1.73605 -10.291
234 78 5 -0.82 -0.882458 2.64669 -10.0689
235 79 3 0.41 1.04854 0.24404 -10.9994
236 79 3 0.41 1.21996 1.20691 -12.2828
237 79 5 -0.82 0.558138 0.860109 -11.6366
238 80 3 0.41 7.70497 0.0997505 -21.16
239 80 3 0.41 6.50803 0.87309 -21.9634
240 80 5 -0.82 6.94771 -0.0387493 -21.8086
241 81 3 0.41 5.07366 4.79804 -9.13693
242 81 3 0.41 4.31724 5.15726 -10.5901
243 81 5 -0.82 4.69074 5.55833 -9.72277
244 82 3 0.41 11.7303 11.4752 3.04143
245 82 3 0.41 -0.950615 12.0987 2.90023
246 82 5 -0.82 12.3247 11.999 3.61707
247 83 3 0.41 2.15706 10.7868 -0.528615
248 83 3 0.41 0.743378 9.99925 -0.400278
249 83 5 -0.82 1.26079 10.7903 -0.0651391
250 84 3 0.41 2.81706 11.4365 12.2981
251 84 3 0.41 3.4791 11.0932 10.8647
252 84 5 -0.82 3.35789 10.7093 11.798
253 85 3 0.41 4.50037 0.423914 22.4093
254 85 3 0.41 3.87201 -0.337942 21.0839
255 85 5 -0.82 3.62483 0.104632 21.9457
256 86 3 0.41 3.1206 8.03747 -15.917
257 86 3 0.41 2.92085 9.56418 -16.568
258 86 5 -0.82 3.58159 8.76626 -16.4579
259 87 3 0.41 -0.798015 9.61922 14.1459
260 87 3 0.41 -0.526163 10.7094 13.0971
261 87 5 -0.82 -0.19154 9.78134 13.3473
262 88 3 0.41 11.4753 3.2344 10.3982
263 88 3 0.41 12.0888 4.67231 9.96608
264 88 5 -0.82 11.4119 3.92957 9.6945
265 89 3 0.41 7.89238 12.2116 -14.7578
266 89 3 0.41 8.02931 -0.414129 -13.9352
267 89 5 -0.82 8.56795 -1.14622 -14.3601
268 90 3 0.41 4.92994 7.39141 -9.36618
269 90 3 0.41 5.44743 8.55498 -10.3176
270 90 5 -0.82 5.30743 8.34672 -9.32882
271 91 3 0.41 2.83526 -1.04239 1.66149
272 91 3 0.41 1.98278 -0.0968004 0.601335
273 91 5 -0.82 2.83734 -0.170366 1.07725
274 92 3 0.41 1.69797 0.905698 5.69781
275 92 3 0.41 1.66395 0.567525 7.28024
276 92 5 -0.82 1.91746 1.30466 6.61991
277 93 3 0.41 0.24243 5.78475 16.9125
278 93 3 0.41 1.69456 5.17239 16.6649
279 93 5 -0.82 1.13581 5.94287 16.3716
280 94 3 0.41 8.05546 3.84389 6.17588
281 94 3 0.41 7.2293 5.20301 6.53656
282 94 5 -0.82 7.24754 4.43165 5.91187
283 95 3 0.41 4.29242 3.7205 19.0862
284 95 3 0.41 4.98924 2.24317 18.9505
285 95 5 -0.82 4.10439 2.66965 19.1322
286 96 3 0.41 1.33359 -0.699024 9.12991
287 96 3 0.41 1.66255 12.0944 8.03519
288 96 5 -0.82 1.73743 -0.903704 8.22212
289 97 3 0.41 2.20495 11.7164 18.4078
290 97 3 0.41 2.65535 10.7348 19.5124
291 97 5 -0.82 3.0027 11.144 18.6218
292 98 3 0.41 1.72055 -0.310766 -16.9203
293 98 3 0.41 1.78064 -0.115798 -15.2893
294 98 5 -0.82 2.2183 0.17324 -16.2113
295 99 3 0.41 -1.49408 -0.338344 0.963976
296 99 3 0.41 10.8284 -0.440008 0.865535
297 99 5 -0.82 11.7161 -0.616738 0.354926
298 100 3 0.41 0.883969 12.3298 -8.15964
299 100 3 0.41 -0.408138 11.44 -8.19654
300 100 5 -0.82 -0.0925082 12.294 -7.80184
301 101 3 0.41 0.29623 1.06978 -3.66483
302 101 3 0.41 -1.31191 0.824467 -3.69804
303 101 5 -0.82 -0.523649 0.926115 -3.08879
304 102 3 0.41 0.454537 11.2287 -18.765
305 102 3 0.41 1.49347 12.3519 -18.9611
306 102 5 -0.82 1.43794 11.4432 -18.5492
307 103 3 0.41 10.6304 4.92685 8.37171
308 103 3 0.41 10.2667 5.50744 6.85419
309 103 5 -0.82 9.93553 5.4369 7.84532
310 104 3 0.41 10.2359 10.4459 -18.1811
311 104 3 0.41 10.4019 10.4867 -16.6113
312 104 5 -0.82 10.9563 10.3529 -17.4682
313 105 3 0.41 5.41054 -0.417029 3.9914
314 105 3 0.41 6.49682 -0.440814 2.74462
315 105 5 -0.82 5.53427 -0.604827 2.9902
316 106 3 0.41 10.5457 10.09 -3.14631
317 106 3 0.41 9.4751 10.1143 -4.41569
318 106 5 -0.82 9.69584 10.5463 -3.51176
319 107 3 0.41 2.73162 9.89737 -13.6705
320 107 3 0.41 1.93927 10.4899 -12.3729
321 107 5 -0.82 1.88118 9.77437 -13.114
322 108 3 0.41 12.3842 -1.0812 -12.7219
323 108 3 0.41 -1.01956 0.384407 -12.4094
324 108 5 -0.82 12.1153 -0.141296 -12.5127
325 109 3 0.41 12.4899 -0.157021 -16.2652
326 109 3 0.41 -1.01445 -0.353287 -17.8004
327 109 5 -0.82 -0.803932 0.149455 -16.9335
328 110 3 0.41 -1.25107 9.29913 -19.1449
329 110 3 0.41 12.0677 10.7248 -18.9719
330 110 5 -0.82 -1.09829 10.2665 -19.371
331 111 3 0.41 11.6301 8.20747 -12.8383
332 111 3 0.41 10.9767 9.24081 -13.9482
333 111 5 -0.82 11.6958 9.15302 -13.221
334 112 3 0.41 9.94728 3.79267 -16.006
335 112 3 0.41 9.58652 5.28309 -16.1301
336 112 5 -0.82 9.22668 4.38921 -15.7644
337 113 3 0.41 2.57014 0.694491 15.7025
338 113 3 0.41 2.534 -0.0517875 14.365
339 113 5 -0.82 2.13029 0.815829 14.7669
340 114 3 0.41 8.81963 7.55315 -15.2771
341 114 3 0.41 10.3164 7.60082 -15.955
342 114 5 -0.82 9.34933 7.39509 -16.1333
343 115 3 0.41 10.5722 6.69337 2.58334
344 115 3 0.41 11.7802 7.66216 2.81943
345 115 5 -0.82 10.9559 7.30469 3.28786
346 116 3 0.41 9.44642 1.3731 14.4792
347 116 3 0.41 11.0881 1.40383 14.6498
348 116 5 -0.82 10.2874 1.82969 14.2241
349 117 3 0.41 3.46834 9.21472 -22.0147
350 117 3 0.41 4.21374 10.6275 -22.1788
351 117 5 -0.82 3.27425 10.2124 -22.0822
352 118 3 0.41 9.95815 -0.851557 -6.83544
353 118 3 0.41 9.86409 0.535058 -7.56376
354 118 5 -0.82 9.40085 -0.36603 -7.52557
355 119 3 0.41 0.734877 5.22679 -7.11412
356 119 3 0.41 1.69419 4.01179 -7.71821
357 119 5 -0.82 0.775576 4.32654 -7.66688
358 120 3 0.41 10.1992 10.6408 -0.728901
359 120 3 0.41 8.79601 10.6447 -1.32498
360 120 5 -0.82 9.28323 10.8872 -0.492142
361 121 3 0.41 1.38145 5.03128 -11.6222
362 121 3 0.41 1.29952 5.76471 -10.1359
363 121 5 -0.82 1.92769 5.31966 -10.8107
364 122 3 0.41 3.26269 6.31273 1.34929
365 122 3 0.41 4.65651 7.09551 1.08601
366 122 5 -0.82 4.2551 6.23385 1.45625
367 123 3 0.41 2.18379 6.05031 6.75627
368 123 3 0.41 1.66275 7.30518 7.29223
369 123 5 -0.82 1.3171 6.48323 6.86015
370 124 3 0.41 3.63041 1.55103 -0.169757
371 124 3 0.41 4.64303 2.59459 -0.8549
372 124 5 -0.82 4.02265 2.50995 -0.0835734
373 125 3 0.41 9.95267 7.48819 -22.3346
374 125 3 0.41 10.8181 6.19525 -22.2641
375 125 5 -0.82 10.8951 7.18349 -22.0747
376 126 3 0.41 -0.976708 7.68807 -22.0226
377 126 3 0.41 0.0336939 9.03538 -22.1443
378 126 5 -0.82 -0.0214632 8.02412 -22.0267
379 127 3 0.41 0.189101 3.90165 12.0154
380 127 3 0.41 1.24389 3.7486 10.8082
381 127 5 -0.82 0.955664 3.26842 11.7008
382 128 3 0.41 1.41297 7.78965 10.7383
383 128 3 0.41 2.34502 6.35496 10.6387
384 128 5 -0.82 2.36241 7.37441 10.8134
385 129 3 0.41 8.44799 -0.991572 8.92358
386 129 3 0.41 7.18253 -0.859874 7.86887
387 129 5 -0.82 7.77663 -0.327664 8.54977
388 130 3 0.41 3.97591 9.60893 -3.65716
389 130 3 0.41 5.07821 8.39726 -3.03187
390 130 5 -0.82 4.86517 9.37626 -3.17771
391 131 3 0.41 2.83978 8.41119 -12.353
392 131 3 0.41 2.43598 6.99101 -11.7667
393 131 5 -0.82 3.22641 7.58687 -11.9016
394 132 3 0.41 9.96116 3.46778 -3.67211
395 132 3 0.41 9.37819 2.75352 -4.96626
396 132 5 -0.82 10.1911 2.73971 -4.35088
397 133 3 0.41 -0.368155 5.3436 3.55219
398 133 3 0.41 -0.689603 4.86031 5.15772
399 133 5 -0.82 -0.52212 5.61678 4.53555
400 134 3 0.41 4.03044 3.53406 5.03651
401 134 3 0.41 5.41095 3.37696 5.94405
402 134 5 -0.82 4.96616 3.09321 5.09678
403 135 3 0.41 8.36141 1.74306 -15.1396
404 135 3 0.41 7.04178 2.22769 -15.9797
405 135 5 -0.82 7.96123 1.73825 -16.1012
406 136 3 0.41 4.02692 4.52772 16.0997
407 136 3 0.41 4.64914 5.54914 14.918
408 136 5 -0.82 4.11905 5.47067 15.8115
409 137 3 0.41 0.55543 10.3561 6.10723
410 137 3 0.41 1.2272 9.49708 7.20629
411 137 5 -0.82 0.442761 9.51916 6.59503
412 138 3 0.41 7.53893 9.40624 7.72536
413 138 3 0.41 6.10301 10.2252 7.73986
414 138 5 -0.82 6.528 9.27894 7.95505
415 139 3 0.41 3.44308 4.89287 22.0188
416 139 3 0.41 3.79991 5.82834 20.8677
417 139 5 -0.82 3.60585 5.83551 21.8491
418 140 3 0.41 1.86252 3.85377 -2.03672
419 140 3 0.41 1.79783 2.22223 -1.96343
420 140 5 -0.82 1.25936 3.05603 -1.70285
421 141 3 0.41 4.98709 6.879 -21.8275
422 141 3 0.41 5.45866 8.40923 -21.8331
423 141 5 -0.82 4.64934 7.81876 -21.9243
424 142 3 0.41 7.01664 8.19146 -2.3982
425 142 3 0.41 7.07768 9.71225 -1.90923
426 142 5 -0.82 7.3982 8.76501 -1.65627
427 143 3 0.41 12.3858 11.6249 9.31117
428 143 3 0.41 11.657 11.292 7.95225
429 143 5 -0.82 12.3757 11.8655 8.31264
430 144 3 0.41 -0.844428 -0.393832 -8.73785
431 144 3 0.41 11.923 0.75054 -8.75057
432 144 5 -0.82 12.3402 -0.02638 -9.25979
433 145 3 0.41 8.29599 9.82397 -9.40923
434 145 3 0.41 6.72484 9.46326 -8.89559
435 145 5 -0.82 7.43904 10.1962 -9.0522
436 146 3 0.41 11.4767 -0.405557 -5.70717
437 146 3 0.41 10.993 0.880122 -5.01008
438 146 5 -0.82 11.8572 0.443677 -5.30212
439 147 3 0.41 7.09874 4.52725 -4.23507
440 147 3 0.41 8.34369 5.27326 -3.55106
441 147 5 -0.82 7.84297 4.41262 -3.5214
442 148 3 0.41 0.88963 8.90508 18.5744
443 148 3 0.41 0.675882 10.322 19.3021
444 148 5 -0.82 0.713433 9.31709 19.5193
445 149 3 0.41 7.74025 2.30932 -6.8362
446 149 3 0.41 7.62893 3.62867 -5.91551
447 149 5 -0.82 8.26257 2.88396 -6.19496
448 150 3 0.41 6.46243 12.1809 -20.2667
449 150 3 0.41 6.76152 11.8948 -18.6862
450 150 5 -0.82 7.22169 11.9552 -19.6416
451 151 3 0.41 3.27887 7.37321 7.98774
452 151 3 0.41 2.59111 8.593 8.75193
453 151 5 -0.82 2.87509 8.31143 7.84414
454 152 3 0.41 6.78178 0.207284 5.30311
455 152 3 0.41 8.06071 -0.549606 5.84578
456 152 5 -0.82 7.65058 0.363153 5.74581
457 153 3 0.41 -0.634171 8.90383 11.5835
458 153 3 0.41 0.128616 9.12549 10.2602
459 153 5 -0.82 0.0135005 8.40771 10.996
460 154 3 0.41 5.01408 1.15706 -15.0253
461 154 3 0.41 3.82131 0.214101 -15.5878
462 154 5 -0.82 4.82839 0.310197 -15.4109
463 155 3 0.41 8.38758 3.33771 22.0909
464 155 3 0.41 9.17231 2.16956 22.8634
465 155 5 -0.82 9.06725 2.5585 21.9623
466 156 3 0.41 4.47766 11.6699 -17.6322
467 156 3 0.41 3.15463 11.3201 -18.5164
468 156 5 -0.82 4.11776 11.6736 -18.6138
469 157 3 0.41 8.97013 0.320915 19.5032
470 157 3 0.41 10.2176 1.15866 20.2312
471 157 5 -0.82 9.9709 0.575309 19.439
472 158 3 0.41 3.05 9.2398 -10.2906
473 158 3 0.41 2.41183 9.36449 -8.94588
474 158 5 -0.82 2.10209 9.23402 -9.89852
475 159 3 0.41 11.263 5.42406 -13.653
476 159 3 0.41 11.7514 6.03093 -15.0481
477 159 5 -0.82 11.7451 5.17517 -14.4984
478 160 3 0.41 12.3246 -0.148385 16.1303
479 160 3 0.41 10.8712 -0.803952 16.0061
480 160 5 -0.82 11.659 -0.495305 15.4228
481 161 3 0.41 1.93309 3.30982 -15.487
482 161 3 0.41 2.41458 1.85065 -16.2345
483 161 5 -0.82 2.24938 2.86587 -16.3509
484 162 3 0.41 11.7885 11.6717 -0.228267
485 162 3 0.41 12.4056 10.7844 -1.34252
486 162 5 -0.82 12.0796 10.7547 -0.416006
487 163 3 0.41 5.98934 5.95529 -0.574472
488 163 3 0.41 6.89942 4.56227 -0.340955
489 163 5 -0.82 6.17559 5.01906 -0.941327
490 164 3 0.41 1.86254 6.78856 -8.75739
491 164 3 0.41 3.33291 6.15419 -8.38935
492 164 5 -0.82 2.61307 6.84598 -8.02264
493 165 3 0.41 1.22401 3.25211 16.0492
494 165 3 0.41 2.45254 2.84329 16.9567
495 165 5 -0.82 1.51426 3.21314 17.0152
496 166 3 0.41 9.3763 4.36614 17.941
497 166 3 0.41 10.5286 5.54687 17.7413
498 166 5 -0.82 9.92637 4.84126 17.2526
499 167 3 0.41 12.3369 3.68682 -17.0312
500 167 3 0.41 -1.37991 4.18704 -15.4089
501 167 5 -0.82 -1.00879 3.66183 -16.2332
502 168 3 0.41 11.6591 3.8712 -5.39262
503 168 3 0.41 11.8737 4.95493 -6.5093
504 168 5 -0.82 12.1152 4.0299 -6.24197
505 169 3 0.41 -1.20079 2.31009 -2.48284
506 169 3 0.41 11.6921 3.40091 -2.61325
507 169 5 -0.82 12.2612 2.93663 -1.89041
508 170 3 0.41 7.18518 0.373324 -0.112126
509 170 3 0.41 5.91353 -0.212822 0.653349
510 170 5 -0.82 6.2148 0.566714 0.105004
511 171 3 0.41 1.79249 1.80252 9.59202
512 171 3 0.41 2.82011 1.77047 10.8407
513 171 5 -0.82 2.79585 1.78874 9.85179
514 172 3 0.41 5.11151 11.7545 22.7851
515 172 3 0.41 4.1803 10.607 22.0668
516 172 5 -0.82 5.05783 11.1211 21.9647
517 173 3 0.41 10.0973 3.34596 5.78516
518 173 3 0.41 9.78256 1.84327 5.48228
519 173 5 -0.82 9.54128 2.56922 6.13271
520 174 3 0.41 4.23749 12.4113 19.2176
521 174 3 0.41 5.09981 12.1779 20.4384
522 174 5 -0.82 4.85264 -1.08896 19.752
523 175 3 0.41 5.61591 3.30512 12.8767
524 175 3 0.41 6.18006 1.83257 13.5411
525 175 5 -0.82 5.5722 2.66672 13.6737
526 176 3 0.41 4.53432 0.163856 6.43868
527 176 3 0.41 4.84805 1.22169 5.0621
528 176 5 -0.82 4.84805 0.262304 5.43837
529 177 3 0.41 6.31417 1.02313 9.3734
530 177 3 0.41 5.48418 2.21037 10.0748
531 177 5 -0.82 5.62915 1.21982 10.058
532 178 3 0.41 10.0208 -1.49772 -8.66704
533 178 3 0.41 10.3079 10.9007 -8.58531
534 178 5 -0.82 10.3604 11.6918 -9.20992
535 179 3 0.41 10.5252 3.60867 -22.3835
536 179 3 0.41 10.13 4.73882 -21.3771
537 179 5 -0.82 10.7238 4.57396 -22.2115
538 180 3 0.41 3.31556 -0.00672451 -5.69946
539 180 3 0.41 2.14811 -1.02697 -5.27304
540 180 5 -0.82 3.13005 -0.93099 -5.35504
541 181 3 0.41 11.8452 -1.24495 -3.00303
542 181 3 0.41 11.7841 11.9098 -4.24966
543 181 5 -0.82 12.3451 12.0107 -3.41127
544 182 3 0.41 0.705214 8.73247 -10.7255
545 182 3 0.41 0.00178767 8.75883 -12.1959
546 182 5 -0.82 -0.0462462 8.2833 -11.3237
547 183 3 0.41 3.11525 6.11359 -15.3932
548 183 3 0.41 4.0418 6.91115 -14.4173
549 183 5 -0.82 3.07601 6.85265 -14.6745
550 184 3 0.41 2.60037 6.4774 19.3043
551 184 3 0.41 2.41668 8.12457 19.4708
552 184 5 -0.82 3.13648 7.37876 19.2994
553 185 3 0.41 -0.594346 4.98419 -20.8131
554 185 3 0.41 0.317133 4.98518 -19.5521
555 185 5 -0.82 -0.644081 5.26633 -19.8168
556 186 3 0.41 8.65306 -0.001062 -10.7859
557 186 3 0.41 9.7549 1.25121 -10.8706
558 186 5 -0.82 9.58689 0.233573 -11.0046
559 187 3 0.41 4.48925 5.89649 6.52841
560 187 3 0.41 3.88745 4.82076 7.45665
561 187 5 -0.82 4.02703 5.84993 7.3951
562 188 3 0.41 -1.27732 11.2931 -22.4691
563 188 3 0.41 -0.626972 10.6068 -21.1072
564 188 5 -0.82 -0.552812 10.6915 -22.162
565 189 3 0.41 2.48926 9.71569 16.4608
566 189 3 0.41 3.54183 10.7366 16.8706
567 189 5 -0.82 2.99261 10.4988 16.0298
568 190 3 0.41 2.5254 11.7164 5.64833
569 190 3 0.41 4.13933 11.4299 5.7141
570 190 5 -0.82 3.28984 11.4047 6.25157
571 191 3 0.41 3.55072 0.949233 18.0611
572 191 3 0.41 3.68979 -0.180025 16.9145
573 191 5 -0.82 3.00261 0.257124 17.5
574 192 3 0.41 8.59927 -1.13122 22.0002
575 192 3 0.41 7.02148 -0.756125 22.0509
576 192 5 -0.82 7.66597 -1.48455 21.7685
577 193 3 0.41 4.21465 1.90693 12.7209
578 193 3 0.41 2.68351 1.33833 13.0924
579 193 5 -0.82 3.47275 1.28719 12.4247
580 194 3 0.41 9.5167 9.59634 3.40369
581 194 3 0.41 8.951 8.90752 4.74125
582 194 5 -0.82 9.04073 9.82184 4.29661
583 195 3 0.41 9.05813 7.87059 9.75191
584 195 3 0.41 9.74681 6.97345 8.52809
585 195 5 -0.82 9.779 7.85028 9.03966
586 196 3 0.41 8.10321 -1.21664 -22.0746
587 196 3 0.41 9.48922 11.9227 -21.8388
588 196 5 -0.82 8.58195 11.8541 -22.2203
589 197 3 0.41 10.5387 0.0892306 5.8323
590 197 3 0.41 9.88555 -1.11698 6.40057
591 197 5 -0.82 10.4328 -0.353335 6.74044
592 198 3 0.41 1.26505 5.52176 -17.8034
593 198 3 0.41 0.134404 5.1263 -16.7299
594 198 5 -0.82 0.909843 5.7194 -16.8684
595 199 3 0.41 -0.275478 2.21504 -15.3609
596 199 3 0.41 0.338883 0.925317 -14.6185
597 199 5 -0.82 -0.280062 1.70962 -14.4796
598 200 3 0.41 6.99391 6.20877 8.29956
599 200 3 0.41 6.76654 7.58499 7.5376
600 200 5 -0.82 7.19128 6.71696 7.45797
601 201 3 0.41 9.35368 9.03062 11.453
602 201 3 0.41 9.92809 9.97521 12.7385
603 201 5 -0.82 9.88266 9.87617 11.6692
604 202 3 0.41 12.2228 4.93404 -18.6482
605 202 3 0.41 10.7605 5.76652 -18.3552
606 202 5 -0.82 11.314 4.94774 -18.1116
607 203 3 0.41 11.444 7.17643 13.2241
608 203 3 0.41 11.0545 8.40306 14.0282
609 203 5 -0.82 11.7607 7.69575 14.083
610 204 3 0.41 7.91091 8.35936 -21.8251
611 204 3 0.41 7.9647 9.9543 -21.8145
612 204 5 -0.82 7.31768 9.18157 -21.7996
613 205 3 0.41 10.5906 3.11319 -11.2611
614 205 3 0.41 9.17228 3.30892 -10.3556
615 205 5 -0.82 9.954 2.72554 -10.5847
616 206 3 0.41 7.0804 3.00708 8.21208
617 206 3 0.41 5.67015 2.28055 7.71138
618 206 5 -0.82 6.69749 2.21258 7.6614
619 207 3 0.41 2.98418 4.05236 9.84023
620 207 3 0.41 1.79373 4.66559 8.99729
621 207 5 -0.82 2.43116 4.91668 9.75012
622 208 3 0.41 1.32839 6.2179 14.6985
623 208 3 0.41 1.6184 7.23717 13.6139
624 208 5 -0.82 1.38493 6.25204 13.6962
625 209 3 0.41 7.88606 7.70319 -13.9671
626 209 3 0.41 7.91373 9.23958 -13.3447
627 209 5 -0.82 8.43836 8.58539 -13.8878
628 210 3 0.41 8.62404 7.43102 14.9197
629 210 3 0.41 8.71371 7.21916 13.3304
630 210 5 -0.82 8.70344 7.96156 14.0461
631 211 3 0.41 0.184115 8.58139 5.30295
632 211 3 0.41 -0.128663 7.14847 4.59042
633 211 5 -0.82 0.203235 8.10624 4.39921
634 212 3 0.41 -0.871898 6.04563 19.2229
635 212 3 0.41 -1.36799 7.07963 18.0504
636 212 5 -0.82 -0.663229 6.95402 18.7589
637 213 3 0.41 10.3061 10.7623 5.37729
638 213 3 0.41 11.8497 11.0885 4.933
639 213 5 -0.82 11.2774 10.8154 5.77649
640 214 3 0.41 8.43041 4.41636 2.11367
641 214 3 0.41 8.01537 6.01005 1.99057
642 214 5 -0.82 8.1129 5.23119 2.68631
643 215 3 0.41 4.42625 8.80175 -19.2871
644 215 3 0.41 4.92908 10.2912 -18.8754
645 215 5 -0.82 5.23343 9.31715 -18.9133
646 216 3 0.41 10.1821 2.88053 9.14338
647 216 3 0.41 9.04342 2.17603 10.0226
648 216 5 -0.82 9.46559 2.09015 9.10784
649 217 3 0.41 9.16857 5.81598 -7.13737
650 217 3 0.41 9.14998 4.19002 -7.44122
651 217 5 -0.82 9.55573 5.0672 -7.71365
652 218 3 0.41 -1.21808 8.12784 0.186489
653 218 3 0.41 12.4388 9.48978 0.811259
654 218 5 -0.82 12.3475 8.51232 1.08564
655 219 3 0.41 7.37201 4.80861 -10.4718
656 219 3 0.41 6.9738 3.57213 -9.6088
657 219 5 -0.82 7.36853 3.77764 -10.5035
658 220 3 0.41 12.3449 5.69925 22.0489
659 220 3 0.41 11.5267 7.02889 21.9949
660 220 5 -0.82 12.4417 6.67547 21.7597
661 221 3 0.41 8.1752 2.83365 -13.3907
662 221 3 0.41 7.20268 3.58261 -12.2408
663 221 5 -0.82 7.22249 3.29308 -13.2304
664 222 3 0.41 1.53341 8.63899 -18.698
665 222 3 0.41 1.91042 9.5776 -20.0289
666 222 5 -0.82 1.96383 8.68756 -19.5745
667 223 3 0.41 10.8477 5.97578 4.8439
668 223 3 0.41 10.2668 4.7095 4.2346
669 223 5 -0.82 10.2492 5.21253 5.12503
670 224 3 0.41 6.03218 11.1877 12.0896
671 224 3 0.41 5.97732 10.3479 10.6859
672 224 5 -0.82 6.49429 11.0913 11.1795
673 225 3 0.41 -1.42643 8.50248 -2.32106
674 225 3 0.41 11.7045 8.34185 -3.62088
675 225 5 -0.82 11.8251 8.97021 -2.78799
676 226 3 0.41 12.3608 4.39274 20.5507
677 226 3 0.41 -1.47993 3.61465 19.2087
678 226 5 -0.82 12.4952 4.5454 19.5444
679 227 3 0.41 -0.0827516 4.2635 22.1411
680 227 3 0.41 1.11464 3.20595 22.1692
681 227 5 -0.82 0.765683 4.00893 21.6019
682 228 3 0.41 7.20519 7.08899 -5.72618
683 228 3 0.41 8.64742 7.4532 -5.16818
684 228 5 -0.82 7.81155 6.94879 -4.96782
685 229 3 0.41 7.01063 2.99512 -21.8305
686 229 3 0.41 8.41932 3.64025 -21.4944
687 229 5 -0.82 7.62961 3.71772 -22.1047
688 230 3 0.41 6.38248 11.8796 -2.94758
689 230 3 0.41 7.45369 12.1775 -1.69838
690 230 5 -0.82 6.99551 11.4503 -2.2639
691 231 3 0.41 -1.43786 4.33133 -0.958948
692 231 3 0.41 -0.932343 5.85563 -0.794676
693 231 5 -0.82 -1.49051 5.12634 -0.338483
694 232 3 0.41 7.71718 9.9007 -5.78372
695 232 3 0.41 8.93515 9.30358 -6.70398
696 232 5 -0.82 8.72806 9.86387 -5.89243
697 233 3 0.41 -1.30186 9.45569 -8.1701
698 233 3 0.41 0.22019 9.52373 -8.06283
699 233 5 -0.82 -0.545562 9.85086 -8.69451
700 234 3 0.41 3.46474 5.20105 -1.47699
701 234 3 0.41 3.90152 3.96445 -2.47187
702 234 5 -0.82 3.19253 4.70556 -2.36194
703 235 3 0.41 -1.26919 1.81958 12.3658
704 235 3 0.41 11.1562 2.02401 12.5026
705 235 5 -0.82 11.9451 2.1979 11.8873
706 236 3 0.41 3.48224 7.21688 -6.8605
707 236 3 0.41 3.60205 7.68562 -5.30803
708 236 5 -0.82 4.17007 7.45407 -6.08572
709 237 3 0.41 8.49055 9.3884 16.6761
710 237 3 0.41 8.3502 10.908 15.9901
711 237 5 -0.82 7.85658 10.1972 16.5404
712 238 3 0.41 10.7479 11.3208 16.972
713 238 3 0.41 11.7962 11.3493 18.0998
714 238 5 -0.82 11.5186 10.751 17.3452
715 239 3 0.41 0.229944 2.03991 10.6588
716 239 3 0.41 -0.783914 1.23899 9.7443
717 239 5 -0.82 0.171411 1.30661 9.9746
718 240 3 0.41 0.597104 7.84652 -16.6097
719 240 3 0.41 -0.315289 8.47342 -17.6886
720 240 5 -0.82 0.425672 8.74103 -17.0079
721 241 3 0.41 11.1973 4.54825 2.3632
722 241 3 0.41 10.7888 3.01508 2.2876
723 241 5 -0.82 11.3451 3.69416 2.86034
724 242 3 0.41 8.39537 3.17835 -2.48957
725 242 3 0.41 9.01153 1.73135 -2.43739
726 242 5 -0.82 8.93239 2.57797 -1.919
727 243 3 0.41 11.7492 0.182444 -14.2349
728 243 3 0.41 10.3133 -0.309891 -14.7685
729 243 5 -0.82 11.1899 0.0276482 -15.0579
730 244 3 0.41 -1.29624 -0.66208 21.5257
731 244 3 0.41 -0.974741 -1.27746 22.9435
732 244 5 -0.82 -1.12575 12.4546 22.0214
733 245 3 0.41 5.77485 0.0385301 -16.7137
734 245 3 0.41 7.1566 0.57895 -17.2343
735 245 5 -0.82 6.36739 0.0531958 -17.511
736 246 3 0.41 -1.09106 1.30826 17.9737
737 246 3 0.41 -0.0535186 2.24651 18.6592
738 246 5 -0.82 -1.04602 2.06044 18.7086
739 247 3 0.41 -0.109572 10.6821 15.6498
740 247 3 0.41 0.23226 11.7917 16.6915
741 247 5 -0.82 0.292139 11.6197 15.7289
742 248 3 0.41 7.89078 11.9189 1.9601
743 248 3 0.41 8.01822 10.6568 0.931639
744 248 5 -0.82 7.37847 11.1409 1.5275
745 249 3 0.41 5.98909 8.81072 -12.7249
746 249 3 0.41 4.8793 7.87298 -12.018
747 249 5 -0.82 5.89371 8.04982 -12.0974
748 250 3 0.41 8.82703 7.58745 21.6969
749 250 3 0.41 9.48456 8.09685 23.0836
750 250 5 -0.82 9.69205 7.94977 22.1388
751 251 3 0.41 5.35096 12.0972 14.2652
752 251 3 0.41 5.25752 10.4906 14.185