ITEM: TIMESTEP
45000
ITEM: NUMBER OF ATOMS
1360
ITEM: BOX BOUNDS pp pp pp
-1.5000000000000000e+00 1.2500000000000000e+01
-1.5000000000000000e+00 1.2500000000000000e+01
-2.7500000000000000e+01 2.7500000000000000e+01
ITEM: ATOMS id mol type q x y z
1 1 3 0.41 4.78564 9.11519 8.89936
2 1 3 0.41 3.4251 9.76223 9.07206
3 1 5 -0.82 4.24225 9.60307 9.63361
4 2 3 0.41 4.40646 9.23695 -11.012
5 2 3 0.41 4.28494 9.85172 -12.4497
6 2 5 -0.82 3.72305 9.77274 -11.5736
7 3 3 0.41 8.27107 -1.31275 16.513
8 3 3 0.41 8.78102 -0.261058 17.7757
9 3 5 -0.82 8.19004 -0.330646 16.8768
10 4 3 0.41 0.909258 0.643522 -17.0857
11 4 3 0.41 0.160262 0.973777 -18.3994
12 4 5 -0.82 0.481396 1.45407 -17.5611
13 5 3 0.41 7.13721 6.732 -6.41813
14 5 3 0.41 6.22189 7.70143 -7.29241
15 5 5 -0.82 7.17514 7.28741 -7.27868
16 6 3 0.41 3.31855 5.88332 -19.8827
17 6 3 0.41 4.34138 6.18375 -18.8163
18 6 5 -0.82 3.88554 6.65627 -19.5563
19 7 3 0.41 9.94246 3.16215 -22.3896
20 7 3 0.41 8.85506 4.36391 -22.4211
21 7 5 -0.82 8.98403 3.39739 -22.2877
22 8 3 0.41 0.933462 9.87883 13.0888
23 8 3 0.41 1.43637 8.89642 14.1973
24 8 5 -0.82 1.42372 9.84299 13.9609
25 9 3 0.41 1.45706 10.9729 -18.2049
26 9 3 0.41 2.1599 9.78408 -17.6244
27 9 5 -0.82 1.72848 10.6288 -17.2841
28 10 3 0.41 8.95914 0.689904 5.30552
29 10 3 0.41 9.61437 0.860776 3.90969
30 10 5 -0.82 9.32207 1.39396 4.7056
31 11 3 0.41 2.27732 2.85336 -5.7853
32 11 3 0.41 3.83062 2.47651 -5.96725
33 11 5 -0.82 2.94007 2.63254 -6.50695
34 12 3 0.41 5.64371 10.7864 -16.3338
35 12 3 0.41 4.15906 10.1106 -16.4967
36 12 5 -0.82 4.64059 11.0329 -16.4382
37 13 3 0.41 2.93802 7.12635 1.93494
38 13 3 0.41 4.43938 6.98525 1.21365
39 13 5 -0.82 3.89322 7.54934 1.93123
40 14 3 0.41 5.91896 2.39294 -10.9474
41 14 3 0.41 6.06035 0.978394 -10.2602
42 14 5 -0.82 6.57432 1.66951 -10.7983
43 15 3 0.41 10.9543 -1.49978 11.7057
44 15 3 0.41 9.54329 -1.03431 11.1531
45 15 5 -0.82 10.5449 -0.988689 10.9357
46 16 3 0.41 10.2851 -0.990856 8.7891
47 16 3 0.41 11.4874 -0.552718 7.84068
48 16 5 -0.82 10.8312 -1.29393 7.95651
49 17 3 0.41 11.0985 10.3752 22.034
50 17 3 0.41 9.91679 9.42881 21.6326
51 17 5 -0.82 10.9382 9.41389 21.6579
52 18 3 0.41 4.07634 0.478983 -11.1652
53 18 3 0.41 4.37093 0.947608 -9.70543
54 18 5 -0.82 4.47742 0.135526 -10.3081
55 19 3 0.41 0.370123 1.99021 4.21085
56 19 3 0.41 1.0193 0.657492 3.46746
57 19 5 -0.82 1.03809 1.21427 4.31506
58 20 3 0.41 11.9361 8.3547 -9.49656
59 20 3 0.41 -0.630442 8.64865 -10.3785
60 20 5 -0.82 12.3017 8.67061 -10.4227
61 21 3 0.41 3.05316 10.6939 22.8785
62 21 3 0.41 1.69591 10.1643 22.2587
63 21 5 -0.82 2.66377 9.90478 22.3525
64 22 3 0.41 7.00397 12.288 -19.267
65 22 3 0.41 6.47794 -0.79334 -18.0971
66 22 5 -0.82 6.2139 -1.16311 -19.017
67 23 3 0.41 3.76848 3.57879 -11.934
68 23 3 0.41 4.41237 2.26885 -12.4006
69 23 5 -0.82 4.65823 3.12886 -12.0025
70 24 3 0.41 2.96794 0.541059 -19.0227
71 24 3 0.41 2.82628 -0.830589 -19.7515
72 24 5 -0.82 2.26255 -0.0849475 -19.3248
73 25 3 0.41 2.37122 7.69141 -14.3048
74 25 3 0.41 2.2791 8.24138 -12.8104
75 25 5 -0.82 1.91941 8.41098 -13.7193
76 26 3 0.41 -0.889399 7.59744 -4.96995
77 26 3 0.41 -0.865724 6.08545 -4.41488
78 26 5 -0.82 -0.339762 6.79099 -4.91898
79 27 3 0.41 6.97083 8.43773 -11.6925
80 27 3 0.41 8.44378 8.88724 -12.0292
81 27 5 -0.82 7.50689 8.79444 -12.4376
82 28 3 0.41 9.65961 1.02596 -10.9831
83 28 3 0.41 10.7531 2.19766 -11.5209
84 28 5 -0.82 9.78438 2.00329 -11.2005
85 29 3 0.41 4.86315 11.2348 15.2351
86 29 3 0.41 5.65087 11.9342 16.2573
87 29 5 -0.82 5.15004 12.1791 15.4196
88 30 3 0.41 10.8593 5.3336 11.2861
89 30 3 0.41 10.2522 4.4716 12.3719
90 30 5 -0.82 11.0961 4.56122 11.8803
91 31 3 0.41 5.23767 3.99669 -19.3546
92 31 3 0.41 6.58797 3.17819 -19.1547
93 31 5 -0.82 6.20761 4.09628 -19.4721
94 32 3 0.41 7.5785 0.845713 -18.5138
95 32 3 0.41 7.90125 2.22625 -18.7135
96 32 5 -0.82 7.07365 1.69069 -18.5339
97 33 3 0.41 0.928205 2.55133 -18.8898
98 33 3 0.41 2.17932 3.45844 -19.1093
99 33 5 -0.82 1.38603 3.04777 -19.6159
100 34 3 0.41 7.20826 5.47906 7.21388
101 34 3 0.41 7.95801 5.39133 8.58874
102 34 5 -0.82 8.1332 5.47847 7.60505
103 35 3 0.41 3.46386 5.41251 15.6559
104 35 3 0.41 2.18843 4.51835 15.63
105 35 5 -0.82 3.23536 4.40258 15.609
106 36 3 0.41 4.89456 9.28782 -4.76231
107 36 3 0.41 6.07344 9.93399 -5.6001
108 36 5 -0.82 5.13161 9.52585 -5.74757
109 37 3 0.41 0.776043 -0.453603 22.0754
110 37 3 0.41 1.65862 12.3655 22.7152
111 37 5 -0.82 0.724106 -1.39235 22.4744
112 38 3 0.41 12.1808 8.03763 4.26503
113 38 3 0.41 -0.785632 8.81951 5.2257
114 38 5 -0.82 12.2225 8.61273 5.08902
115 39 3 0.41 4.32703 0.673312 -17.1272
116 39 3 0.41 5.52005 1.44759 -17.9523
117 39 5 -0.82 4.50152 1.41742 -17.8429
118 40 3 0.41 1.2367 12.3918 -19.3044
119 40 3 0.41 0.792961 11.7306 -20.6804
120 40 5 -0.82 0.825331 11.5494 -19.6904
121 41 3 0.41 0.0507122 4.00288 -8.21541
122 41 3 0.41 -1.16285 4.89152 -7.50547
123 41 5 -0.82 -0.243107 4.95217 -8.00594
124 42 3 0.41 3.10888 -0.0915589 11.3582
125 42 3 0.41 2.82846 -1.07512 10.2689
126 42 5 -0.82 3.32024 -1.06914 11.1426
127 43 3 0.41 8.26016 9.08103 16.7739
128 43 3 0.41 7.72143 10.3427 16.1598
129 43 5 -0.82 7.31765 9.53706 16.6511
130 44 3 0.41 12.4393 1.28359 -19.4763
131 44 3 0.41 -1.1232 -0.258976 -18.944
132 44 5 -0.82 -1.01542 0.447352 -19.6747
133 45 3 0.41 6.4536 7.44318 0.227285
134 45 3 0.41 7.09115 8.4816 -0.781285
135 45 5 -0.82 6.32731 7.76866 -0.748336
136 46 3 0.41 6.44443 3.61754 18.9611
137 46 3 0.41 6.35806 5.26581 18.9361
138 46 5 -0.82 6.6255 4.45164 19.5168
139 47 3 0.41 4.70614 10.2826 4.55117
140 47 3 0.41 3.28256 9.55471 4.91479
141 47 5 -0.82 3.80298 10.4235 5.00298
142 48 3 0.41 -0.597473 7.99797 22.7012
143 48 3 0.41 -0.212219 6.46034 22.6943
144 48 5 -0.82 -0.801749 7.13384 22.1742
145 49 3 0.41 2.62969 5.33215 -8.33195
146 49 3 0.41 2.35109 4.60116 -6.87581
147 49 5 -0.82 2.6449 5.46841 -7.30052
148 50 3 0.41 11.93 5.78236 17.2402
149 50 3 0.41 -1.41554 7.16323 17.841
150 50 5 -0.82 12.4034 6.66531 16.983
151 51 3 0.41 -1.33047 9.33897 15.0792
152 51 3 0.41 12.4446 7.70128 14.8369
153 51 5 -0.82 12.4141 8.63567 14.4383
154 52 3 0.41 6.55483 11.9376 -11.0607
155 52 3 0.41 7.83692 10.9821 -11.5638
156 52 5 -0.82 7.51047 11.954 -11.4799
157 53 3 0.41 8.38114 8.2325 5.59626
158 53 3 0.41 7.76035 9.66486 5.94827
159 53 5 -0.82 7.78615 8.71396 6.30255
160 54 3 0.41 8.79575 7.79052 12.1865
161 54 3 0.41 7.60786 6.77146 12.8922
162 54 5 -0.82 8.5686 7.11924 12.9577
163 55 3 0.41 4.92437 4.87503 6.61267
164 55 3 0.41 4.9935 4.79407 8.23568
165 55 5 -0.82 5.32306 5.34426 7.42152
166 56 3 0.41 9.69192 -1.27991 -3.0673
167 56 3 0.41 8.48694 -0.370818 -2.82179
168 56 5 -0.82 9.34957 -0.613405 -2.38296
169 57 3 0.41 11.0166 1.12324 -21.4671
170 57 3 0.41 11.3283 -0.183026 -22.0248
171 57 5 -0.82 10.58 0.454204 -22.0456
172 58 3 0.41 9.11723 12.0411 -20.6569
173 58 3 0.41 8.73824 10.9254 -19.5928
174 58 5 -0.82 8.65824 11.9324 -19.7367
175 59 3 0.41 5.12467 12.3363 10.6746
176 59 3 0.41 5.0971 10.9506 9.93003
177 59 5 -0.82 5.75915 11.7419 10.1074
178 60 3 0.41 0.591664 -0.448568 -7.36965
179 60 3 0.41 -0.39781 -1.39847 -8.21194
180 60 5 -0.82 -0.341442 -0.54389 -7.69605
181 61 3 0.41 -0.279411 4.31302 15.8854
182 61 3 0.41 0.284967 5.4106 16.7681
183 61 5 -0.82 0.569788 4.73307 16.1149
184 62 3 0.41 3.41531 9.04141 2.03793
185 62 3 0.41 2.0688 9.99478 1.99155
186 62 5 -0.82 3.0836 10.0152 1.8948
187 63 3 0.41 6.54347 0.790853 19.3796
188 63 3 0.41 8.20717 0.834693 19.1854
189 63 5 -0.82 7.32216 1.39363 19.2211
190 64 3 0.41 6.06131 10.3543 2.6253
191 64 3 0.41 7.17306 9.84872 3.59485
192 64 5 -0.82 6.17363 9.93697 3.55096
193 65 3 0.41 6.77415 -0.501838 -1.56037
194 65 3 0.41 6.8912 12.4963 -0.370189
195 65 5 -0.82 6.64877 -0.558227 -0.55699
196 66 3 0.41 8.5099 5.50067 2.98098
197 66 3 0.41 7.17103 5.2775 3.6149
198 66 5 -0.82 8.14449 5.27866 3.86698
199 67 3 0.41 4.14706 8.53461 19.9392
200 67 3 0.41 4.85858 7.54817 18.9565
201 67 5 -0.82 4.02411 7.60208 19.5486
202 68 3 0.41 3.59532 4.97535 18.037
203 68 3 0.41 3.59374 5.77799 19.446
204 68 5 -0.82 3.33585 4.90351 19.0102
205 69 3 0.41 -1.18324 8.88246 -20.6619
206 69 3 0.41 -0.279204 9.05206 -21.9852
207 69 5 -0.82 -1.25848 8.87551 -21.6976
208 70 3 0.41 -0.284477 6.39673 -20.3155
209 70 3 0.41 12.2959 5.82105 -19.6901
210 70 5 -0.82 -0.70885 5.82121 -19.6444
211 71 3 0.41 8.11046 3.45527 9.18051
212 71 3 0.41 8.31337 4.00594 10.8699
213 71 5 -0.82 8.73719 3.68634 9.99225
214 72 3 0.41 0.0346584 1.60874 19.1373
215 72 3 0.41 0.969646 2.29847 18.1088
216 72 5 -0.82 0.400672 2.49974 18.9149
217 73 3 0.41 5.83632 6.36232 -14.0941
218 73 3 0.41 6.71072 7.7835 -13.7237
219 73 5 -0.82 5.98556 7.36698 -14.3109
220 74 3 0.41 11.0315 5.00421 -0.00710628
221 74 3 0.41 12.4399 5.4663 0.431901
222 74 5 -0.82 11.4888 5.46887 0.789771
223 75 3 0.41 2.26806 6.87319 -6.80557
224 75 3 0.41 1.05653 7.45054 -5.83087
225 75 5 -0.82 1.88505 7.71978 -6.34466
226 76 3 0.41 4.56212 7.14505 -11.8581
227 76 3 0.41 4.37884 7.01357 -13.3973
228 76 5 -0.82 3.8811 6.80804 -12.5219
229 77 3 0.41 10.4575 9.55533 14.0243
230 77 3 0.41 9.03255 8.65344 14.2621
231 77 5 -0.82 9.64154 9.38739 14.6274
232 78 3 0.41 -1.37023 1.27904 -11.2538
233 78 3 0.41 -1.36791 -0.225717 -10.7958
234 78 5 -0.82 -1.27318 0.692343 -10.4106
235 79 3 0.41 3.26522 0.122173 -7.94951
236 79 3 0.41 2.09836 0.314857 -6.92341
237 79 5 -0.82 2.24032 0.14973 -7.91396
238 80 3 0.41 7.80994 0.321517 -22.3758
239 80 3 0.41 8.31722 1.8143 -22.0701
240 80 5 -0.82 7.55144 1.15333 -21.9108
241 81 3 0.41 7.60437 10.7255 -8.21388
242 81 3 0.41 6.36257 10.0565 -8.79437
243 81 5 -0.82 7.34827 10.1864 -8.98632
244 82 3 0.41 -0.656958 11.3054 3.61715
245 82 3 0.41 0.458069 -1.49404 3.90533
246 82 5 -0.82 -0.512203 12.2206 4.00126
247 83 3 0.41 5.37378 7.02825 7.68724
248 83 3 0.41 5.5035 8.1546 6.72164
249 83 5 -0.82 5.2629 8.08207 7.70475
250 84 3 0.41 3.03191 10.1763 13.1288
251 84 3 0.41 3.48987 11.4696 12.1924
252 84 5 -0.82 3.73192 10.5338 12.4758
253 85 3 0.41 3.18488 3.85951 20.4701
254 85 3 0.41 3.73276 3.61593 21.9722
255 85 5 -0.82 3.01246 3.29889 21.301
256 86 3 0.41 1.56323 3.46456 -15.4432
257 86 3 0.41 0.471738 2.75605 -16.4852
258 86 5 -0.82 0.588632 3.57233 -15.8297
259 87 3 0.41 0.0511479 11.1164 11.1627
260 87 3 0.41 -0.526706 10.1261 12.2413
261 87 5 -0.82 0.27639 10.2545 11.626
262 88 3 0.41 11.2171 0.607403 10.5747
263 88 3 0.41 11.1369 1.21142 9.10512
264 88 5 -0.82 11.7835 1.10276 9.87881
265 89 3 0.41 -0.159585 9.72355 -16.3627
266 89 3 0.41 0.72772 9.24871 -15.1159
267 89 5 -0.82 -0.202398 9.17887 -15.529
268 90 3 0.41 4.51514 10.7836 -10.0726
269 90 3 0.41 4.80268 12.4739 -9.86527
270 90 5 -0.82 5.23972 11.5076 -9.99772
271 91 3 0.41 4.65111 10.8935 1.71031
272 91 3 0.41 5.43939 11.3209 0.332683
273 91 5 -0.82 5.51606 11.2631 1.33992
274 92 3 0.41 3.32239 -1.24662 5.75984
275 92 3 0.41 1.84886 -0.459552 6.03922
276 92 5 -0.82 2.70608 -0.832978 6.46501
277 93 3 0.41 12.3379 1.33841 11.6508
278 93 3 0.41 11.9565 0.466176 12.9308
279 93 5 -0.82 12.1504 1.44426 12.6763
280 94 3 0.41 9.08587 4.60298 6.66445
281 94 3 0.41 10.5981 4.6293 6.03169
282 94 5 -0.82 9.78494 4.01424 6.11241
283 95 3 0.41 4.57775 3.65385 16.8756
284 95 3 0.41 5.37975 2.30784 17.1134
285 95 5 -0.82 5.3631 3.26653 17.3743
286 96 3 0.41 -0.797328 -1.15359 10.6993
287 96 3 0.41 0.297067 -1.3094 9.36413
288 96 5 -0.82 -0.567366 12.3803 9.82714
289 97 3 0.41 -0.212089 11.7675 19.0705
290 97 3 0.41 0.615744 10.4061 19.6184
291 97 5 -0.82 -0.0740459 10.7398 18.9428
292 98 3 0.41 3.74149 11.551 -11.8716
293 98 3 0.41 3.00648 11.6465 -13.2667
294 98 5 -0.82 3.55566 12.2101 -12.6134
295 99 3 0.41 2.03716 9.48301 -0.34541
296 99 3 0.41 0.952751 10.1125 -1.23699
297 99 5 -0.82 1.4417 10.3218 -0.394747
298 100 3 0.41 12.0615 10.9739 -9.15762
299 100 3 0.41 -0.713301 10.7112 -8.16612
300 100 5 -0.82 -0.940944 11.2768 -8.99903
301 101 3 0.41 10.075 9.92779 -7.66644
302 101 3 0.41 10.6813 11.4427 -7.57347
303 101 5 -0.82 10.62 10.6376 -8.16614
304 102 3 0.41 0.349017 8.65188 -18.9919
305 102 3 0.41 -0.306144 10.0802 -19.4701
306 102 5 -0.82 -0.536905 9.10107 -19.2922
307 103 3 0.41 8.27195 -0.498774 9.95107
308 103 3 0.41 7.43535 0.602661 9.1482
309 103 5 -0.82 8.20035 -0.0675105 9.01639
310 104 3 0.41 11.6345 4.90589 -16.56
311 104 3 0.41 -0.691883 4.52076 -16.2477
312 104 5 -0.82 -1.39994 5.21582 -16.5676
313 105 3 0.41 9.17899 8.8151 3.81797
314 105 3 0.41 9.56165 10.0621 2.80278
315 105 5 -0.82 8.76361 9.39302 3.10346
316 106 3 0.41 10.3985 5.2547 -10.5826
317 106 3 0.41 11.535 6.32351 -10.1114
318 106 5 -0.82 11.413 5.4459 -10.6085
319 107 3 0.41 2.07894 5.86814 -10.661
320 107 3 0.41 3.66635 5.92565 -10.3098
321 107 5 -0.82 2.77735 5.5816 -9.99778
322 108 3 0.41 -1.47188 12.0783 -12.0067
323 108 3 0.41 -1.41173 11.6669 -10.3553
324 108 5 -0.82 11.9626 11.878 -11.1688
325 109 3 0.41 11.6542 11.4591 -20.2633
326 109 3 0.41 12.0597 11.8284 -18.6942
327 109 5 -0.82 11.499 11.2248 -19.313
328 110 3 0.41 12.2033 10.2419 -15.7902
329 110 3 0.41 10.8598 11.1446 -15.8745
330 110 5 -0.82 11.8743 11.1849 -15.8454
331 111 3 0.41 -1.07469 8.29445 -13.9968
332 111 3 0.41 11.8452 7.27441 -13.2947
333 111 5 -0.82 12.0326 8.27351 -13.4268
334 112 3 0.41 6.70221 -0.997144 -15.4436
335 112 3 0.41 7.68753 0.150417 -16.0753
336 112 5 -0.82 7.14721 -0.723518 -16.3044
337 113 3 0.41 0.0387382 1.82874 15.0631
338 113 3 0.41 1.61706 1.65825 15.2349
339 113 5 -0.82 0.926309 1.81634 14.566
340 114 3 0.41 9.44014 -0.329404 -13.8413
341 114 3 0.41 9.89086 -0.959702 -15.3018
342 114 5 -0.82 10.1596 -0.841871 -14.316
343 115 3 0.41 0.279623 4.24223 4.76814
344 115 3 0.41 -1.09036 3.74504 5.32086
345 115 5 -0.82 -0.47388 3.58418 4.51709
346 116 3 0.41 10.9414 1.4371 17.295
347 116 3 0.41 11.5673 1.04508 15.9624
348 116 5 -0.82 10.6718 1.07517 16.4076
349 117 3 0.41 0.351929 -0.61222 -22.2244
350 117 3 0.41 1.45547 12.2085 -22.1054
351 117 5 -0.82 0.444855 12.351 -22.2558
352 118 3 0.41 9.45008 8.62886 -5.74056
353 118 3 0.41 8.55817 8.16333 -7.01429
354 118 5 -0.82 9.49657 8.45181 -6.76755
355 119 3 0.41 1.49999 2.62751 -7.47787
356 119 3 0.41 1.4263 2.05803 -8.95216
357 119 5 -0.82 0.848994 2.5404 -8.24379
358 120 3 0.41 -0.0549934 4.10859 1.67031
359 120 3 0.41 -0.481271 3.29807 2.94535
360 120 5 -0.82 -0.485631 3.22276 1.90897
361 121 3 0.41 1.63939 4.38216 -11.9797
362 121 3 0.41 2.75238 5.26145 -12.7866
363 121 5 -0.82 2.46021 4.33726 -12.6085
364 122 3 0.41 4.92423 4.87525 2.14411
365 122 3 0.41 6.48587 4.96447 1.6709
366 122 5 -0.82 5.86964 4.98202 2.47674
367 123 3 0.41 9.036 1.81799 7.72622
368 123 3 0.41 10.2023 2.60816 7.06806
369 123 5 -0.82 10.0646 1.82815 7.71937
370 124 3 0.41 5.01908 2.88875 -0.936277
371 124 3 0.41 6.33761 2.56059 -0.0869555
372 124 5 -0.82 5.53656 3.18582 -0.0868876
373 125 3 0.41 8.36483 6.55885 -21.0574
374 125 3 0.41 9.54587 6.46209 -22.2935
375 125 5 -0.82 8.61163 6.20071 -21.9682
376 126 3 0.41 11.0989 6.77144 -18.6241
377 126 3 0.41 9.74335 6.15004 -19.3356
378 126 5 -0.82 10.7396 6.38195 -19.4985
379 127 3 0.41 -1.20685 3.98774 11.3489
380 127 3 0.41 -1.16915 2.97672 10.0998
381 127 5 -0.82 -0.531846 3.42921 10.7933
382 128 3 0.41 5.09785 6.51856 10.2832
383 128 3 0.41 3.54213 6.04648 10.5812
384 128 5 -0.82 4.12092 6.78707 10.1718
385 129 3 0.41 5.45576 -1.34764 7.86023
386 129 3 0.41 4.71092 11.6036 7.01591
387 129 5 -0.82 5.62813 11.9619 7.14673
388 130 3 0.41 5.007 4.75495 0.0156721
389 130 3 0.41 5.03442 5.87413 -1.04106
390 130 5 -0.82 4.47442 5.61231 -0.197624
391 131 3 0.41 0.523066 7.87254 -11.689
392 131 3 0.41 0.415248 6.35246 -12.4671
393 131 5 -0.82 0.676325 6.88095 -11.6385
394 132 3 0.41 11.4469 8.39026 -4.99333
395 132 3 0.41 11.5485 9.83215 -4.66928
396 132 5 -0.82 12.1418 9.12285 -5.07423
397 133 3 0.41 0.119684 11.3115 0.256535
398 133 3 0.41 -1.18728 11.5504 1.09684
399 133 5 -0.82 -0.318908 12.0516 0.800331
400 134 3 0.41 6.26889 2.5537 5.5268
401 134 3 0.41 5.98651 4.09683 5.24108
402 134 5 -0.82 6.73964 3.46866 5.44973
403 135 3 0.41 8.29345 7.16373 -16.4422
404 135 3 0.41 7.06773 8.29242 -16.3467
405 135 5 -0.82 7.41914 7.49064 -16.9384
406 136 3 0.41 1.00108 3.12381 13.734
407 136 3 0.41 0.258179 3.92417 12.6023
408 136 5 -0.82 1.08892 3.9306 13.098
409 137 3 0.41 12.1972 3.98188 7.92127
410 137 3 0.41 -1.38527 2.69853 6.85557
411 137 5 -0.82 -1.01234 3.42931 7.49742
412 138 3 0.41 6.90836 8.10485 8.7038
413 138 3 0.41 7.96239 8.39658 7.82532
414 138 5 -0.82 7.86919 8.35365 8.82375
415 139 3 0.41 1.86322 6.30248 22.1962
416 139 3 0.41 2.58661 7.40828 23.0588
417 139 5 -0.82 2.672 6.97776 22.1632
418 140 3 0.41 1.85192 1.01419 -2.37989
419 140 3 0.41 0.936508 2.48253 -2.40148
420 140 5 -0.82 1.25383 1.64547 -2.89692
421 141 3 0.41 4.5014 10.3894 -20.9496
422 141 3 0.41 4.63527 9.11213 -21.9167
423 141 5 -0.82 3.92873 9.66679 -21.3512
424 142 3 0.41 9.16835 6.82745 -1.61666
425 142 3 0.41 7.5344 6.95504 -1.51486
426 142 5 -0.82 8.29928 6.40452 -1.85208
427 143 3 0.41 -1.00203 8.29592 8.97925
428 143 3 0.41 -0.0741049 8.89453 7.78301
429 143 5 -0.82 -0.751406 9.17476 8.47819
430 144 3 0.41 10.1388 10.0759 -9.53408
431 144 3 0.41 8.62113 9.85746 -9.89939
432 144 5 -0.82 9.57461 9.76175 -10.307
433 145 3 0.41 7.19723 12.3084 -6.39926
434 145 3 0.41 8.09507 10.9901 -6.14948
435 145 5 -0.82 7.35985 11.3687 -6.71733
436 146 3 0.41 0.837314 9.5537 -3.26763
437 146 3 0.41 -0.745192 9.49984 -3.6156
438 146 5 -0.82 -0.105019 9.67702 -2.88707
439 147 3 0.41 5.70745 -0.861606 -4.11451
440 147 3 0.41 4.28149 -1.46835 -4.20648
441 147 5 -0.82 4.9632 -0.961422 -4.76284
442 148 3 0.41 -0.69029 8.71775 19.43
443 148 3 0.41 11.8534 9.44879 19.1335
444 148 5 -0.82 12.3484 8.54563 19.115
445 149 3 0.41 9.13309 0.936237 -5.29173
446 149 3 0.41 9.36768 -0.501446 -5.86894
447 149 5 -0.82 8.85391 0.00494772 -5.1481
448 150 3 0.41 2.37997 9.37381 -19.9429
449 150 3 0.41 2.80977 7.96948 -19.3908
450 150 5 -0.82 2.27855 8.80485 -19.0943
451 151 3 0.41 2.1279 5.6254 8.09679
452 151 3 0.41 3.07352 6.7503 8.88681
453 151 5 -0.82 2.38153 6.61137 8.13097
454 152 3 0.41 7.88656 11.7299 4.42185
455 152 3 0.41 7.20872 11.5912 5.86837
456 152 5 -0.82 7.95672 11.1916 5.32602
457 153 3 0.41 1.16806 9.07884 10.7347
458 153 3 0.41 1.48738 7.79512 9.92625
459 153 5 -0.82 1.87962 8.33536 10.6534
460 154 3 0.41 2.89755 -0.480633 -16.0759
461 154 3 0.41 4.2038 -1.43635 -16.3215
462 154 5 -0.82 3.86915 -0.45463 -16.3829
463 155 3 0.41 4.09508 1.93067 21.8237
464 155 3 0.41 5.63082 1.96464 22.0734
465 155 5 -0.82 4.77521 1.44666 22.2603
466 156 3 0.41 4.79889 12.4185 -19.0594
467 156 3 0.41 3.53505 11.7261 -18.0692
468 156 5 -0.82 3.91601 11.8672 -19.0342
469 157 3 0.41 9.18938 10.713 19.1474
470 157 3 0.41 8.28792 10.8798 20.3882
471 157 5 -0.82 8.24369 10.8839 19.3859
472 158 3 0.41 4.77575 9.10241 -7.2826
473 158 3 0.41 3.75176 8.96001 -8.48767
474 158 5 -0.82 4.74755 8.99351 -8.28686
475 159 3 0.41 6.42434 1.55696 -14.332
476 159 3 0.41 4.93587 1.24213 -14.9088
477 159 5 -0.82 5.6653 1.95929 -14.8533
478 160 3 0.41 11.5019 3.75261 16.1698
479 160 3 0.41 11.2977 3.51799 17.8199
480 160 5 -0.82 11.4052 4.23475 17.0769
481 161 3 0.41 1.48568 1.32131 -11.0624
482 161 3 0.41 1.54678 2.95001 -10.8022
483 161 5 -0.82 2.06367 2.0762 -10.6889
484 162 3 0.41 0.210792 5.93281 -0.437488
485 162 3 0.41 0.0751371 6.98168 -1.66407
486 162 5 -0.82 -0.399399 6.56846 -0.885311
487 163 3 0.41 4.65996 1.92793 -3.28777
488 163 3 0.41 4.19891 1.42406 -1.92652
489 163 5 -0.82 4.30098 2.30983 -2.37742
490 164 3 0.41 6.38691 10.6916 -2.6491
491 164 3 0.41 7.63269 11.6341 -3.32021
492 164 5 -0.82 6.69207 11.5843 -2.8814
493 165 3 0.41 0.0332125 -0.251309 16.1755
494 165 3 0.41 -0.823369 0.12229 17.3733
495 165 5 -0.82 -0.64957 0.403594 16.4439
496 166 3 0.41 7.10829 5.26094 14.4992
497 166 3 0.41 7.06635 4.59997 15.9538
498 166 5 -0.82 6.82766 5.42213 15.4296
499 167 3 0.41 1.17602 0.182753 -15.1464
500 167 3 0.41 1.05597 -1.40164 -15.3168
501 167 5 -0.82 1.25993 -0.560436 -15.8739
502 168 3 0.41 -0.750894 2.40399 -6.13348
503 168 3 0.41 11.7554 2.58684 -6.1282
504 168 5 -0.82 12.4071 1.91068 -6.4795
505 169 3 0.41 11.3467 12.4168 -5.52822
506 169 3 0.41 12.0676 -0.820104 -6.75926
507 169 5 -0.82 11.1639 -1.14305 -6.42225
508 170 3 0.41 5.58001 -0.174239 0.688222
509 170 3 0.41 3.89168 -0.2604 0.921546
510 170 5 -0.82 4.77969 0.25251 1.19053
511 171 3 0.41 -0.27055 0.63215 8.58908
512 171 3 0.41 -0.572085 0.688081 7.04155
513 171 5 -0.82 0.0674501 0.266043 7.74833
514 172 3 0.41 3.92992 -0.650205 22.6624
515 172 3 0.41 2.9658 -1.14564 21.3648
516 172 5 -0.82 3.32026 -1.39959 22.3212
517 173 3 0.41 11.6805 -1.28423 4.39623
518 173 3 0.41 10.7579 11.5663 4.13096
519 173 5 -0.82 10.8039 12.3961 4.66832
520 174 3 0.41 6.18523 10.6461 17.3376
521 174 3 0.41 7.0459 11.5793 18.3209
522 174 5 -0.82 6.19994 11.576 17.811
523 175 3 0.41 5.43315 0.455269 9.40327
524 175 3 0.41 4.07868 0.743298 8.44462
525 175 5 -0.82 5.07494 0.386103 8.43988
526 176 3 0.41 7.82129 12.0283 2.11355
527 176 3 0.41 8.41939 -0.585182 2.51048
528 176 5 -0.82 7.84277 -1.33253 2.89666
529 177 3 0.41 5.85479 -1.23833 14.1798
530 177 3 0.41 6.40856 0.257782 13.816
531 177 5 -0.82 6.34708 -0.719305 13.4617
532 178 3 0.41 9.46953 7.27864 -10.9683
533 178 3 0.41 9.74833 6.84589 -12.5928
534 178 5 -0.82 9.86641 7.5902 -11.8814
535 179 3 0.41 11.4408 4.73733 -22.1263
536 179 3 0.41 -1.2246 3.75869 -21.8735
537 179 5 -0.82 11.7109 3.77218 -21.9234
538 180 3 0.41 6.78241 8.24591 2.60864
539 180 3 0.41 7.84957 7.62301 1.6106
540 180 5 -0.82 6.8352 7.75398 1.75157
541 181 3 0.41 0.0640158 8.75457 -7.45125
542 181 3 0.41 -0.919445 9.37747 -6.35543
543 181 5 -0.82 -0.176397 9.63036 -7.02733
544 182 3 0.41 -0.483347 3.63976 -11.5452
545 182 3 0.41 -0.382344 4.83151 -10.4368
546 182 5 -0.82 0.193573 4.17893 -10.9872
547 183 3 0.41 -0.407912 6.00054 -14.701
548 183 3 0.41 0.5492 4.77703 -14.1775
549 183 5 -0.82 0.246937 5.71687 -13.9852
550 184 3 0.41 2.03413 7.86878 20.369
551 184 3 0.41 0.472109 7.30682 20.4896
552 184 5 -0.82 1.06385 8.0175 20.0486
553 185 3 0.41 8.75273 4.02354 -16.84
554 185 3 0.41 9.6581 3.79403 -18.0817
555 185 5 -0.82 9.70702 4.24036 -17.1183
556 186 3 0.41 9.58755 9.94679 -14.1657
557 186 3 0.41 9.94473 11.4054 -13.7542
558 186 5 -0.82 9.85369 10.5088 -13.3231
559 187 3 0.41 3.87255 4.13714 4.28304
560 187 3 0.41 3.76583 3.55085 5.76226
561 187 5 -0.82 4.21615 4.35071 5.26252
562 188 3 0.41 -1.22758 11.8816 -22.1042
563 188 3 0.41 11.2382 11.165 -22.027
564 188 5 -0.82 11.7996 11.9742 -21.7481
565 189 3 0.41 12.4668 5.85744 13.1886
566 189 3 0.41 11.7096 5.87501 14.5576
567 189 5 -0.82 -1.3846 5.65265 14.1609
568 190 3 0.41 2.20536 -1.18263 8.02922
569 190 3 0.41 1.94908 11.4228 8.73094
570 190 5 -0.82 1.92534 12.4572 8.9349
571 191 3 0.41 5.5758 -0.147266 16.2907
572 191 3 0.41 6.64249 0.355191 17.1217
573 191 5 -0.82 5.64136 0.568587 16.9931
574 192 3 0.41 5.88481 -0.00901841 22.4161
575 192 3 0.41 6.11048 -0.837853 21.1162
576 192 5 -0.82 6.38485 -0.830022 22.0807
577 193 3 0.41 2.2499 -1.14068 14.4715
578 193 3 0.41 3.81969 -1.23358 14.1141
579 193 5 -0.82 3.02612 -0.642747 13.9909
580 194 3 0.41 2.47284 9.17258 7.38382
581 194 3 0.41 1.48667 10.2815 7.1924
582 194 5 -0.82 2.12526 9.95167 7.89502
583 195 3 0.41 10.7276 2.78987 14.1043
584 195 3 0.41 9.50527 3.87268 14.2473
585 195 5 -0.82 9.74484 2.88558 14.3059
586 196 3 0.41 6.36998 11.2694 -21.7606
587 196 3 0.41 6.11918 -1.16767 -21.3814
588 196 5 -0.82 5.70806 12.0463 -21.9245
589 197 3 0.41 11.4356 9.5832 6.08579
590 197 3 0.41 10.605 9.4833 7.41269
591 197 5 -0.82 10.7367 10.1353 6.60529
592 198 3 0.41 9.07818 4.1662 -13.6199
593 198 3 0.41 9.98212 2.76167 -13.8224
594 198 5 -0.82 9.08533 3.24611 -14.0364
595 199 3 0.41 11.8042 2.08735 -17.4774
596 199 3 0.41 11.6325 1.15965 -16.25
597 199 5 -0.82 11.1263 1.46095 -17.1108
598 200 3 0.41 -1.23035 6.0389 6.04316
599 200 3 0.41 11.6674 5.74697 4.83194
600 200 5 -0.82 11.9183 5.52474 5.77667
601 201 3 0.41 7.1619 6.90936 10.6886
602 201 3 0.41 6.64686 5.39078 10.9059
603 201 5 -0.82 6.75717 6.10832 10.207
604 202 3 0.41 3.64785 2.74171 -18.3082
605 202 3 0.41 3.81242 4.27476 -17.6498
606 202 5 -0.82 3.48688 3.7233 -18.4325
607 203 3 0.41 0.838002 5.83733 11.566
608 203 3 0.41 0.45521 6.86098 12.8579
609 203 5 -0.82 0.128958 6.46592 11.9697
610 204 3 0.41 7.45531 9.28064 -18.4883
611 204 3 0.41 5.92048 9.10984 -18.8398
612 204 5 -0.82 6.74192 9.63737 -19.1088
613 205 3 0.41 10.385 -1.49393 -10.8654
614 205 3 0.41 8.73966 -1.1896 -10.9212
615 205 5 -0.82 9.65954 -0.903024 -10.4616
616 206 3 0.41 7.44214 0.065647 6.02483
617 206 3 0.41 8.2829 -0.277786 7.41698
618 206 5 -0.82 8.27004 -0.361547 6.42825
619 207 3 0.41 4.37546 2.9413 10.0027
620 207 3 0.41 3.66288 4.37134 9.79099
621 207 5 -0.82 4.30248 3.73015 9.35323
622 208 3 0.41 4.00183 4.77814 13.9557
623 208 3 0.41 5.16053 4.88623 12.8146
624 208 5 -0.82 4.23644 5.24315 13.1067
625 209 3 0.41 7.58627 5.63596 -13.1918
626 209 3 0.41 8.26654 5.01836 -11.8369
627 209 5 -0.82 8.45371 5.41818 -12.7488
628 210 3 0.41 6.54583 6.29554 16.9772
629 210 3 0.41 6.70133 7.40807 18.1875
630 210 5 -0.82 6.26505 6.52386 17.9259
631 211 3 0.41 2.3185 4.49489 5.71366
632 211 3 0.41 2.02576 5.11135 4.26667
633 211 5 -0.82 1.63041 5.00572 5.16314
634 212 3 0.41 12.076 5.12682 20.5373
635 212 3 0.41 -1.1779 5.50902 19.1263
636 212 5 -0.82 12.0096 5.78393 19.7363
637 213 3 0.41 10.4058 3.9252 9.42137
638 213 3 0.41 10.7406 5.47923 8.99328
639 213 5 -0.82 11.005 4.51393 8.79077
640 214 3 0.41 11.2086 3.47929 3.65976
641 214 3 0.41 10.3211 3.53056 2.3034
642 214 5 -0.82 10.3047 3.73808 3.29315
643 215 3 0.41 4.69686 8.42897 -15.4288
644 215 3 0.41 3.41224 7.49981 -15.7371
645 215 5 -0.82 3.8179 8.45301 -15.8611
646 216 3 0.41 7.43724 11.4679 8.22229
647 216 3 0.41 8.09909 10.0017 8.4375
648 216 5 -0.82 8.31853 11.0402 8.40221
649 217 3 0.41 7.91825 7.27052 -8.8806
650 217 3 0.41 7.87326 5.86109 -9.76197
651 217 5 -0.82 8.17568 6.83238 -9.7761
652 218 3 0.41 2.44026 4.80115 2.39102
653 218 3 0.41 2.76795 3.22083 2.21595
654 218 5 -0.82 3.09011 4.09076 2.7418
655 219 3 0.41 9.24532 2.81778 -7.16167
656 219 3 0.41 9.69768 1.8876 -8.31324
657 219 5 -0.82 9.10601 2.65725 -8.14058
658 220 3 0.41 9.32262 6.32796 22.0301
659 220 3 0.41 10.5194 5.95638 23.0775
660 220 5 -0.82 10.3393 6.28997 22.1533
661 221 3 0.41 7.23977 11.3439 -16.4589
662 221 3 0.41 8.2686 10.2567 -15.9445
663 221 5 -0.82 7.31092 10.4179 -16.0711
664 222 3 0.41 2.41968 9.43376 -21.7397
665 222 3 0.41 1.07307 10.2197 -22.4129
666 222 5 -0.82 1.38382 9.37351 -21.9511
667 223 3 0.41 12.0128 2.74025 1.13011
668 223 3 0.41 11.1293 2.3074 -0.130399
669 223 5 -0.82 11.0729 2.44285 0.851513
670 224 3 0.41 5.76727 8.12397 13.2472
671 224 3 0.41 6.27412 9.27588 12.2438
672 224 5 -0.82 5.84205 8.37205 12.2344
673 225 3 0.41 -1.2336 1.54171 -3.61265
674 225 3 0.41 11.9173 0.913025 -4.75972
675 225 5 -0.82 12.2333 0.735606 -3.8301
676 226 3 0.41 11.7453 1.93579 19.4963
677 226 3 0.41 10.3123 2.7694 19.6758
678 226 5 -0.82 11.0015 2.4154 18.9789
679 227 3 0.41 1.46262 4.20248 22.2737
680 227 3 0.41 0.354083 4.94247 21.3552
681 227 5 -0.82 1.00354 5.10968 22.1211
682 228 3 0.41 10.8549 4.6465 -6.39998
683 228 3 0.41 11.1717 6.14791 -6.12358
684 228 5 -0.82 11.4536 5.40271 -6.73633
685 229 3 0.41 6.27326 4.27231 -20.9161
686 229 3 0.41 6.71422 3.83919 -22.4265
687 229 5 -0.82 6.05391 4.37132 -21.9429
688 230 3 0.41 10.5186 7.0896 0.710343
689 230 3 0.41 10.1708 8.3179 1.67557
690 230 5 -0.82 9.74253 7.57987 1.13606
691 231 3 0.41 -1.49807 0.20657 -0.647114
692 231 3 0.41 -0.0539136 0.21034 -1.41312
693 231 5 -0.82 -0.655454 0.727189 -0.792195
694 232 3 0.41 11.6102 6.63393 -7.80279
695 232 3 0.41 10.6603 7.83875 -7.73837
696 232 5 -0.82 11.3082 7.45698 -8.41398
697 233 3 0.41 3.73376 5.67809 -5.94876
698 233 3 0.41 5.11401 5.00599 -5.31428
699 233 5 -0.82 4.48584 5.80689 -5.22764
700 234 3 0.41 2.73926 4.57657 -0.701363
701 234 3 0.41 2.13778 3.13312 -0.216101
702 234 5 -0.82 2.05557 3.88791 -0.892747
703 235 3 0.41 -0.056053 -1.10773 13.0053
704 235 3 0.41 1.08652 -0.042507 13.3695
705 235 5 -0.82 0.589252 -0.443036 12.5687
706 236 3 0.41 5.71598 3.37657 -8.21728
707 236 3 0.41 6.4585 4.70421 -7.52683
708 236 5 -0.82 6.34936 4.14773 -8.38226
709 237 3 0.41 6.40761 6.9917 15.1142
710 237 3 0.41 6.0241 8.52271 15.5458
711 237 5 -0.82 5.98356 7.84037 14.7775
712 238 3 0.41 -1.18118 7.57938 11.819
713 238 3 0.41 11.8836 8.49678 12.6957
714 238 5 -0.82 11.9284 8.01892 11.7827
715 239 3 0.41 12.1537 0.950885 5.05703
716 239 3 0.41 11.2208 1.12486 6.37366
717 239 5 -0.82 12.1978 1.08821 6.07799
718 240 3 0.41 1.91635 10.1409 -13.9116
719 240 3 0.41 2.39457 11.1 -15.271
720 240 5 -0.82 1.86983 11.0692 -14.3814
721 241 3 0.41 10.5101 1.00206 1.67435
722 241 3 0.41 10.2622 -0.413853 1.14421
723 241 5 -0.82 10.0506 0.116345 2.01147
724 242 3 0.41 -1.46204 9.90667 -1.38325
725 242 3 0.41 11.2791 10.4369 -2.15222
726 242 5 -0.82 11.539 9.95296 -1.3079
727 243 3 0.41 9.79458 8.308 -15.0266
728 243 3 0.41 10.1962 8.99861 -16.4503
729 243 5 -0.82 9.70548 9.14283 -15.5773
730 244 3 0.41 -1.1112 1.53844 22.6055
731 244 3 0.41 -1.29345 0.721013 21.1956
732 244 5 -0.82 12.2032 1.24721 21.9382
733 245 3 0.41 6.14796 1.0838 -21.3345
734 245 3 0.41 5.87321 0.407762 -20.0345
735 245 5 -0.82 5.29306 0.778875 -20.7746
736 246 3 0.41 9.27642 -0.520925 20.173
737 246 3 0.41 10.4041 0.0140543 19.2511
738 246 5 -0.82 9.41042 -0.0660837 19.2497
739 247 3 0.41 2.44013 -1.12325 18.9265
740 247 3 0.41 1.25372 -0.939131 19.9559
741 247 5 -0.82 2.14915 -1.38289 19.8328
742 248 3 0.41 1.48371 8.97746 5.2721
743 248 3 0.41 0.723084 9.59151 4.11079
744 248 5 -0.82 0.75584 9.66529 5.10881
745 249 3 0.41 5.91828 3.96108 -13.6159
746 249 3 0.41 6.90373 4.62351 -14.6388
747 249 5 -0.82 6.18696 4.849 -14.0047
748 250 3 0.41 6.70708 6.82524 22.0389
749 250 3 0.41 7.42004 5.37935 21.8189
750 250 5 -0.82 7.64509 6.36734 21.8773
751 251 3 0.41 6.88994 11.5345 13.2676
752 251 3 0.41 5.6102 10.712 12.7423