ITEM: TIMESTEP
50000
ITEM: NUMBER OF ATOMS
1360
ITEM: BOX BOUNDS pp pp pp
-1.5000000000000000e+00 1.2500000000000000e+01
-1.5000000000000000e+00 1.2500000000000000e+01
-2.7500000000000000e+01 2.7500000000000000e+01
ITEM: ATOMS id mol type q x y z
1 1 3 0.41 4.82663 10.0885 7.53675
2 1 3 0.41 4.36141 11.6072 7.68272
3 1 5 -0.82 4.47612 10.7457 8.22414
4 2 3 0.41 4.06305 11.6009 -13.4779
5 2 3 0.41 2.83547 11.6944 -14.628
6 2 5 -0.82 3.46167 11.074 -14.0704
7 3 3 0.41 7.3333 1.16334 16.6373
8 3 3 0.41 8.86394 1.06406 16.367
9 3 5 -0.82 7.9912 1.1274 15.8165
10 4 3 0.41 2.93792 3.68523 -16.1046
11 4 3 0.41 4.21213 3.66582 -15.1982
12 4 5 -0.82 3.74245 3.08679 -15.9055
13 5 3 0.41 8.0386 8.0371 -6.77778
14 5 3 0.41 8.49699 8.19662 -5.32093
15 5 5 -0.82 7.83025 8.57707 -5.96973
16 6 3 0.41 5.72789 7.47991 -19.3078
17 6 3 0.41 4.45016 8.45321 -18.8125
18 6 5 -0.82 4.79846 7.83031 -19.5259
19 7 3 0.41 8.90897 3.54594 -21.9769
20 7 3 0.41 9.68101 4.93237 -22.1433
21 7 5 -0.82 8.69171 4.55281 -22.0607
22 8 3 0.41 1.37509 8.63016 15.2691
23 8 3 0.41 2.63377 9.16024 14.3312
24 8 5 -0.82 1.65536 9.29819 14.5259
25 9 3 0.41 1.42285 10.7166 -16.518
26 9 3 0.41 -0.171527 10.5766 -16.4977
27 9 5 -0.82 0.698962 10.1065 -16.2574
28 10 3 0.41 9.75882 2.49149 4.46383
29 10 3 0.41 8.44068 1.40612 4.63523
30 10 5 -0.82 8.75006 2.3667 4.43421
31 11 3 0.41 5.05061 3.76259 -7.5905
32 11 3 0.41 5.77893 2.57955 -6.64599
33 11 5 -0.82 5.01803 3.29938 -6.65199
34 12 3 0.41 5.50664 11.2752 -16.7469
35 12 3 0.41 5.06203 -1.13001 -17.0653
36 12 5 -0.82 5.16571 11.9374 -17.4713
37 13 3 0.41 2.04302 6.80434 0.132974
38 13 3 0.41 3.27527 7.49698 -0.581247
39 13 5 -0.82 2.33606 7.67081 -0.300875
40 14 3 0.41 9.94952 3.44367 -12.2575
41 14 3 0.41 9.50022 1.96866 -12.8056
42 14 5 -0.82 9.18543 2.81711 -12.3383
43 15 3 0.41 -1.09367 0.109648 10.5331
44 15 3 0.41 11.6272 0.678652 11.4189
45 15 5 -0.82 -1.39072 0.823145 11.2431
46 16 3 0.41 11.6558 0.833326 9.6335
47 16 3 0.41 11.8441 1.4712 8.23838
48 16 5 -0.82 11.3143 0.725966 8.70329
49 17 3 0.41 11.9676 9.70508 21.8622
50 17 3 0.41 10.5205 9.82069 22.5734
51 17 5 -0.82 10.9548 9.52725 21.7459
52 18 3 0.41 6.12274 0.771653 -10.1336
53 18 3 0.41 7.76644 0.871216 -10.1936
54 18 5 -0.82 6.89291 0.483642 -10.6697
55 19 3 0.41 0.758123 4.27489 5.04809
56 19 3 0.41 0.466834 2.7814 4.55696
57 19 5 -0.82 0.433941 3.35976 5.39986
58 20 3 0.41 -0.462693 9.54834 -9.90053
59 20 3 0.41 -1.47638 9.72138 -8.60433
60 20 5 -0.82 -1.37518 9.95759 -9.59662
61 21 3 0.41 2.50056 11.1213 21.9921
62 21 3 0.41 1.44187 10.2375 21.2686
63 21 5 -0.82 2.33643 10.1701 21.7426
64 22 3 0.41 8.08492 0.0618722 -18.2146
65 22 3 0.41 7.26333 -0.405838 -16.8962
66 22 5 -0.82 7.22547 0.22716 -17.696
67 23 3 0.41 7.52527 3.05254 -11.8008
68 23 3 0.41 7.26594 4.36659 -10.8883
69 23 5 -0.82 6.81927 3.705 -11.5212
70 24 3 0.41 4.65084 1.8606 -19.1807
71 24 3 0.41 3.90783 3.39157 -19.5097
72 24 5 -0.82 4.06572 2.63571 -18.8548
73 25 3 0.41 2.62345 7.14332 -14.9439
74 25 3 0.41 3.55728 8.03554 -14.07
75 25 5 -0.82 3.62627 7.45684 -14.864
76 26 3 0.41 -0.725522 6.42306 -5.41463
77 26 3 0.41 0.70987 7.0741 -5.85433
78 26 5 -0.82 -0.168029 7.25905 -5.34417
79 27 3 0.41 8.61372 11.0473 -13.1095
80 27 3 0.41 7.61853 9.9438 -12.5191
81 27 5 -0.82 7.80586 10.5049 -13.3773
82 28 3 0.41 10.9851 5.07869 -9.20589
83 28 3 0.41 10.1172 3.83237 -8.47248
84 28 5 -0.82 10.1842 4.48946 -9.24269
85 29 3 0.41 4.404 11.3223 17.383
86 29 3 0.41 5.43182 12.0761 18.4239
87 29 5 -0.82 5.34389 11.4895 17.6092
88 30 3 0.41 9.43097 8.38551 13.8473
89 30 3 0.41 10.6923 7.72184 13.2197
90 30 5 -0.82 9.69369 7.48788 13.4293
91 31 3 0.41 9.0905 5.39561 -20.0447
92 31 3 0.41 9.24222 6.77388 -20.736
93 31 5 -0.82 9.29437 6.34772 -19.831
94 32 3 0.41 8.46311 3.14378 -18.5757
95 32 3 0.41 8.90188 2.74031 -20.0268
96 32 5 -0.82 8.11902 3.16005 -19.5366
97 33 3 0.41 3.21557 5.00167 -18.3905
98 33 3 0.41 3.15011 6.35249 -19.1948
99 33 5 -0.82 3.10861 5.33668 -19.3432
100 34 3 0.41 6.6092 6.62177 7.62654
101 34 3 0.41 6.70169 8.15395 8.11185
102 34 5 -0.82 7.20549 7.39524 7.63796
103 35 3 0.41 5.32251 3.49097 15.8795
104 35 3 0.41 5.15609 1.98734 15.2981
105 35 5 -0.82 4.69507 2.68726 15.8659
106 36 3 0.41 7.31543 11.6485 -6.90584
107 36 3 0.41 7.15074 10.1705 -6.11298
108 36 5 -0.82 6.65406 10.9192 -6.61701
109 37 3 0.41 -0.06545 -0.350879 22.6018
110 37 3 0.41 0.985807 -1.27805 21.9572
111 37 5 -0.82 0.00663914 -1.28283 22.1991
112 38 3 0.41 10.8212 10.752 4.87571
113 38 3 0.41 9.25822 10.9064 4.7892
114 38 5 -0.82 9.96813 10.5326 5.43199
115 39 3 0.41 5.3965 3.12078 -16.9717
116 39 3 0.41 6.55054 1.97894 -17.2422
117 39 5 -0.82 6.34536 2.85918 -16.7625
118 40 3 0.41 0.809528 0.331401 -19.5279
119 40 3 0.41 -0.739156 0.163523 -18.9676
120 40 5 -0.82 -0.00521507 -0.233656 -19.6106
121 41 3 0.41 1.00613 6.15791 -7.86159
122 41 3 0.41 0.343487 5.25968 -8.97764
123 41 5 -0.82 0.158956 6.13179 -8.43833
124 42 3 0.41 2.98515 0.266645 11.3936
125 42 3 0.41 2.59067 0.788114 9.90348
126 42 5 -0.82 2.98912 0.0334953 10.4198
127 43 3 0.41 9.74636 11.3462 17.2197
128 43 3 0.41 8.67459 11.4444 18.4152
129 43 5 -0.82 8.94386 10.8424 17.6327
130 44 3 0.41 2.15141 2.85124 -19.0898
131 44 3 0.41 0.61605 3.04156 -18.768
132 44 5 -0.82 1.26728 3.01283 -19.5189
133 45 3 0.41 7.95064 8.28437 -2.39165
134 45 3 0.41 6.73086 9.08376 -2.88664
135 45 5 -0.82 7.0923 8.14945 -2.82155
136 46 3 0.41 5.37662 7.01694 18.1426
137 46 3 0.41 4.68559 6.30642 19.3274
138 46 5 -0.82 5.55065 6.32171 18.8846
139 47 3 0.41 2.61044 9.54644 4.15673
140 47 3 0.41 1.91675 9.36659 5.38536
141 47 5 -0.82 2.15754 8.77428 4.6022
142 48 3 0.41 -0.724767 7.6664 22.1723
143 48 3 0.41 -0.984007 6.12285 21.7376
144 48 5 -0.82 -1.44479 7.05958 21.764
145 49 3 0.41 2.63787 7.64537 -7.21013
146 49 3 0.41 2.70402 6.58895 -5.94557
147 49 5 -0.82 2.09727 6.96033 -6.66208
148 50 3 0.41 9.73662 5.97781 16.1706
149 50 3 0.41 10.8403 5.86799 14.9674
150 50 5 -0.82 10.733 6.18773 15.9513
151 51 3 0.41 12.362 7.73163 15.9648
152 51 3 0.41 -0.454847 7.27814 15.1272
153 51 5 -0.82 -1.04428 8.12861 15.2615
154 52 3 0.41 7.81721 0.350431 -13.589
155 52 3 0.41 7.82184 0.129801 -11.8934
156 52 5 -0.82 8.33401 -0.027057 -12.7916
157 53 3 0.41 5.57069 -1.37921 5.80964
158 53 3 0.41 7.16086 -1.38304 5.57877
159 53 5 -0.82 6.3289 11.9961 5.75061
160 54 3 0.41 7.37461 9.8922 12.9081
161 54 3 0.41 8.82285 10.3157 12.1699
162 54 5 -0.82 7.91901 10.6694 12.4323
163 55 3 0.41 5.09828 6.70178 4.26715
164 55 3 0.41 5.31283 5.53798 5.41213
165 55 5 -0.82 5.21311 6.51607 5.27405
166 56 3 0.41 11.5072 0.588807 -1.08897
167 56 3 0.41 10.7261 1.1078 0.224797
168 56 5 -0.82 10.6496 0.440517 -0.519411
169 57 3 0.41 -1.43075 2.96898 -21.6739
170 57 3 0.41 11.7793 3.00914 -20.1836
171 57 5 -0.82 11.9493 2.44802 -21.0511
172 58 3 0.41 10.0758 -0.754983 -18.8032
173 58 3 0.41 9.24409 -0.348807 -20.185
174 58 5 -0.82 9.47027 -0.0725992 -19.2243
175 59 3 0.41 5.54977 12.3388 9.35728
176 59 3 0.41 5.4612 -0.33261 9.8514
177 59 5 -0.82 5.65267 -0.737038 8.95132
178 60 3 0.41 2.47753 0.796904 -7.66675
179 60 3 0.41 1.13969 -0.0659928 -8.16242
180 60 5 -0.82 1.53519 0.850173 -8.05734
181 61 3 0.41 4.06107 5.16447 16.448
182 61 3 0.41 2.81949 4.3912 16.2795
183 61 5 -0.82 3.05578 5.2762 16.6875
184 62 3 0.41 -0.556083 9.61609 0.877535
185 62 3 0.41 0.697802 9.64937 1.82855
186 62 5 -0.82 -0.152107 9.14937 1.70103
187 63 3 0.41 7.77642 2.41678 19.5053
188 63 3 0.41 8.90929 1.57051 20.2569
189 63 5 -0.82 8.76183 2.1718 19.4585
190 64 3 0.41 3.85032 9.61061 1.42491
191 64 3 0.41 2.51226 9.01858 0.724876
192 64 5 -0.82 2.85107 9.79896 1.28519
193 65 3 0.41 5.62024 -0.749158 -2.06204
194 65 3 0.41 7.14969 -1.38305 -1.77518
195 65 5 -0.82 6.21472 -1.21062 -1.42524
196 66 3 0.41 7.4427 6.14332 1.70485
197 66 3 0.41 6.15935 6.20044 2.62708
198 66 5 -0.82 7.17951 6.22782 2.68556
199 67 3 0.41 4.38076 8.7973 18.2549
200 67 3 0.41 5.71024 9.0094 17.2932
201 67 5 -0.82 4.86299 8.47045 17.3854
202 68 3 0.41 2.7325 6.01865 18.203
203 68 3 0.41 2.06644 6.89105 19.4947
204 68 5 -0.82 2.83885 6.2655 19.2233
205 69 3 0.41 -1.10124 11.056 -20.2559
206 69 3 0.41 12.2208 11.6898 -21.5518
207 69 5 -0.82 12.112 10.9184 -20.9139
208 70 3 0.41 2.20706 8.84707 -19.5585
209 70 3 0.41 1.09321 7.67817 -20.0671
210 70 5 -0.82 1.80752 7.94196 -19.3865
211 71 3 0.41 8.89442 5.52695 8.46108
212 71 3 0.41 9.91404 6.60324 7.83465
213 71 5 -0.82 9.89709 5.72791 8.33407
214 72 3 0.41 2.4373 1.57946 18.528
215 72 3 0.41 3.05521 2.19752 17.1606
216 72 5 -0.82 2.31285 2.33945 17.8413
217 73 3 0.41 9.48979 7.92453 -14.6429
218 73 3 0.41 9.84304 7.56385 -16.2088
219 73 5 -0.82 9.59702 8.31223 -15.5699
220 74 3 0.41 10.2486 10.5654 -2.51591
221 74 3 0.41 11.5412 9.73862 -2.98213
222 74 5 -0.82 10.9659 9.90741 -2.17846
223 75 3 0.41 0.635096 8.39563 -7.89929
224 75 3 0.41 -0.228839 8.30314 -6.61864
225 75 5 -0.82 0.106729 8.99753 -7.26968
226 76 3 0.41 5.67714 7.23448 -14.4258
227 76 3 0.41 7.1833 7.78151 -14.0487
228 76 5 -0.82 6.56466 7.51263 -14.7968
229 77 3 0.41 9.86153 9.80838 15.5755
230 77 3 0.41 9.46566 10.9207 14.4459
231 77 5 -0.82 9.56342 9.86142 14.6085
232 78 3 0.41 1.49905 1.93685 -11.8424
233 78 3 0.41 1.57739 0.713626 -10.8047
234 78 5 -0.82 1.13633 1.63959 -10.9774
235 79 3 0.41 3.64641 0.685985 -10.2378
236 79 3 0.41 3.79294 2.12646 -9.58431
237 79 5 -0.82 4.21058 1.2066 -9.58872
238 80 3 0.41 6.86303 2.33194 -20.8381
239 80 3 0.41 5.49904 2.55995 -21.7455
240 80 5 -0.82 6.29026 1.95351 -21.5604
241 81 3 0.41 8.58694 9.03608 -8.19724
242 81 3 0.41 7.69084 10.26 -8.04078
243 81 5 -0.82 8.45707 9.93907 -8.59029
244 82 3 0.41 12.2151 11.9382 3.05993
245 82 3 0.41 -1.18639 10.4022 3.28212
246 82 5 -0.82 12.2016 11.1214 3.69771
247 83 3 0.41 4.27358 8.48124 4.05533
248 83 3 0.41 5.59462 9.13913 3.49059
249 83 5 -0.82 4.78544 8.56773 3.204
250 84 3 0.41 1.82849 11.4383 11.2936
251 84 3 0.41 2.55993 12.306 10.133
252 84 5 -0.82 2.42119 11.344 10.4801
253 85 3 0.41 1.28272 1.99134 21.9562
254 85 3 0.41 2.60794 3.06285 22.1121
255 85 5 -0.82 2.33157 2.1163 21.8442
256 86 3 0.41 0.927921 4.84166 -16.6415
257 86 3 0.41 1.90976 6.01191 -16.5042
258 86 5 -0.82 1.91284 4.97621 -16.5001
259 87 3 0.41 0.196633 9.78368 11.09
260 87 3 0.41 -1.01272 10.5071 11.8552
261 87 5 -0.82 -0.537054 10.4672 10.9379
262 88 3 0.41 -0.846383 3.15685 11.4429
263 88 3 0.41 12.2095 3.48689 10.2708
264 88 5 -0.82 -0.960119 3.89755 10.742
265 89 3 0.41 11.0411 8.94546 -15.2527
266 89 3 0.41 12.4376 8.88809 -15.8747
267 89 5 -0.82 11.9161 9.43936 -15.2335
268 90 3 0.41 7.86185 11.2897 -9.73891
269 90 3 0.41 7.56156 -1.14301 -10.3515
270 90 5 -0.82 7.63911 11.849 -10.5738
271 91 3 0.41 7.46769 -0.00373409 2.44631
272 91 3 0.41 7.65781 -0.248353 0.773323
273 91 5 -0.82 7.05091 0.0857913 1.52785
274 92 3 0.41 1.73945 -1.31381 7.15344
275 92 3 0.41 0.111423 -0.985947 6.88661
276 92 5 -0.82 0.913236 -0.887114 7.53814
277 93 3 0.41 -1.00665 2.36847 13.8975
278 93 3 0.41 0.217667 2.44991 12.9184
279 93 5 -0.82 -0.455932 3.00228 13.394
280 94 3 0.41 8.32342 5.60183 6.50761
281 94 3 0.41 9.5951 5.98509 5.67655
282 94 5 -0.82 8.73056 5.42062 5.59582
283 95 3 0.41 5.82081 3.889 19.7487
284 95 3 0.41 5.40009 3.74564 18.2047
285 95 5 -0.82 5.82908 3.23938 18.948
286 96 3 0.41 -0.0221636 -1.12767 8.78556
287 96 3 0.41 -0.552114 12.1421 10.1808
288 96 5 -0.82 -0.638395 -1.0227 9.62258
289 97 3 0.41 0.0780782 10.6541 18.8109
290 97 3 0.41 -0.138413 10.9163 20.4354
291 97 5 -0.82 0.45695 11.1011 19.6331
292 98 3 0.41 2.25684 -0.350311 -15.3551
293 98 3 0.41 2.99235 -1.31872 -16.2184
294 98 5 -0.82 2.25573 -1.33948 -15.5671
295 99 3 0.41 -0.598923 11.8735 0.149594
296 99 3 0.41 0.485625 11.9256 -1.04504
297 99 5 -0.82 0.182758 12.44 -0.202015
298 100 3 0.41 1.30991 11.751 -8.77771
299 100 3 0.41 -0.0608527 12.3514 -8.28063
300 100 5 -0.82 0.61194 12.4256 -9.01943
301 101 3 0.41 11.2995 0.000243509 -6.44052
302 101 3 0.41 12.3958 -1.02419 -6.92808
303 101 5 -0.82 11.9428 -0.177566 -7.15433
304 102 3 0.41 1.11837 10.6133 -19.6373
305 102 3 0.41 0.387039 11.8833 -18.9814
306 102 5 -0.82 0.20357 10.9268 -19.2494
307 103 3 0.41 9.98399 3.0844 9.00715
308 103 3 0.41 10.3245 2.87202 10.5774
309 103 5 -0.82 10.675 3.29784 9.73838
310 104 3 0.41 -0.75814 6.29025 -16.001
311 104 3 0.41 -0.619829 6.78992 -14.366
312 104 5 -0.82 -1.23012 6.80216 -15.1949
313 105 3 0.41 6.79148 10.542 2.29932
314 105 3 0.41 6.85861 10.9597 3.90309
315 105 5 -0.82 6.87452 10.1446 3.24547
316 106 3 0.41 -1.28779 6.7926 -8.42715
317 106 3 0.41 11.3564 7.80916 -8.62889
318 106 5 -0.82 11.7222 6.87998 -8.76655
319 107 3 0.41 2.44327 6.05866 -10.1005
320 107 3 0.41 3.77508 6.38835 -10.8773
321 107 5 -0.82 3.16227 6.77718 -10.1214
322 108 3 0.41 -0.871367 12.1665 -12.3241
323 108 3 0.41 -0.448367 -1.35694 -10.7881
324 108 5 -0.82 -1.21748 -1.37378 -11.4313
325 109 3 0.41 -1.12178 1.50571 -17.2121
326 109 3 0.41 11.4697 1.60946 -18.2856
327 109 5 -0.82 12.406 1.19101 -18.0953
328 110 3 0.41 0.550951 -0.714075 -17.0739
329 110 3 0.41 -1.08338 -1.06429 -17.403
330 110 5 -0.82 -0.316127 -1.15891 -16.7834
331 111 3 0.41 12.1998 9.45926 -13.4127
332 111 3 0.41 12.4749 8.6761 -11.9837
333 111 5 -0.82 -1.48797 9.60503 -12.4023
334 112 3 0.41 10.1447 2.81659 -16.5428
335 112 3 0.41 9.74589 1.47771 -17.1704
336 112 5 -0.82 9.64922 2.47352 -17.3217
337 113 3 0.41 1.53424 -0.000989226 15.5674
338 113 3 0.41 3.07442 0.0549949 15.8773
339 113 5 -0.82 2.41488 0.209892 15.1217
340 114 3 0.41 11.497 1.7606 -13.6756
341 114 3 0.41 10.7654 0.928826 -14.8418
342 114 5 -0.82 10.6014 1.44048 -13.9795
343 115 3 0.41 -0.915044 5.34568 2.25172
344 115 3 0.41 -0.247903 4.1786 3.09906
345 115 5 -0.82 -1.1415 4.58519 2.90771
346 116 3 0.41 10.7922 3.42863 13.8996
347 116 3 0.41 10.8376 1.89523 14.5311
348 116 5 -0.82 10.199 2.57577 14.1043
349 117 3 0.41 0.305836 -0.640122 -21.254
350 117 3 0.41 1.44094 -0.617178 -22.4655
351 117 5 -0.82 0.499195 -0.937487 -22.2163
352 118 3 0.41 9.54063 11.6082 -5.34294
353 118 3 0.41 9.17971 12.1953 -6.74848
354 118 5 -0.82 9.8302 11.5148 -6.28944
355 119 3 0.41 1.9752 3.88808 -7.7409
356 119 3 0.41 3.03502 4.30048 -9.01028
357 119 5 -0.82 2.09297 3.91755 -8.78694
358 120 3 0.41 11.9978 7.11094 1.05453
359 120 3 0.41 -0.333917 7.14624 1.30714
360 120 5 -0.82 -1.16816 6.58722 1.04974
361 121 3 0.41 4.72175 7.13082 -12.5241
362 121 3 0.41 5.74973 6.27785 -11.5544
363 121 5 -0.82 4.90962 6.20383 -12.104
364 122 3 0.41 5.71214 3.80727 -0.382031
365 122 3 0.41 4.65447 4.81466 0.0314194
366 122 5 -0.82 5.50361 4.7732 -0.508408
367 123 3 0.41 11.6251 5.52588 6.22775
368 123 3 0.41 11.1677 5.04718 7.72803
369 123 5 -0.82 11.8626 4.84737 6.94872
370 124 3 0.41 4.54739 1.63446 -0.421843
371 124 3 0.41 5.80549 1.41815 0.578941
372 124 5 -0.82 5.47316 1.9863 -0.173616
373 125 3 0.41 8.40045 6.37672 -22.3425
374 125 3 0.41 7.65615 7.81668 -22.2386
375 125 5 -0.82 8.52618 7.33169 -22.0761
376 126 3 0.41 11.53 9.41578 -21.7623
377 126 3 0.41 10.2211 8.35798 -21.9615
378 126 5 -0.82 11.2009 8.51587 -22.0953
379 127 3 0.41 -0.491792 5.52772 11.8816
380 127 3 0.41 -0.0348534 5.8314 13.3919
381 127 5 -0.82 0.178466 6.06755 12.4151
382 128 3 0.41 5.74879 7.85907 10.7713
383 128 3 0.41 7.01328 8.38327 9.97472
384 128 5 -0.82 6.03463 8.57729 10.0877
385 129 3 0.41 4.55696 -0.728606 7.58007
386 129 3 0.41 3.51732 -0.00237319 6.52562
387 129 5 -0.82 3.9013 -0.910857 6.79241
388 130 3 0.41 5.65616 7.04014 -2.43458
389 130 3 0.41 4.98177 6.18549 -1.2409
390 130 5 -0.82 4.77065 6.69268 -2.08428
391 131 3 0.41 3.9143 9.63131 -13.0091
392 131 3 0.41 4.38916 8.8282 -11.6526
393 131 5 -0.82 4.0388 8.75216 -12.5921
394 132 3 0.41 12.3805 11.1357 -4.05462
395 132 3 0.41 11.9058 -1.36153 -3.45136
396 132 5 -0.82 -1.3285 12.0172 -3.59346
397 133 3 0.41 -1.05515 0.400874 2.97679
398 133 3 0.41 -0.123998 0.0970575 4.10222
399 133 5 -0.82 -0.626317 0.889718 3.71489
400 134 3 0.41 6.56199 3.93567 6.41399
401 134 3 0.41 5.53575 3.19679 5.53525
402 134 5 -0.82 6.23931 3.91425 5.48952
403 135 3 0.41 9.48632 10.1262 -16.3339
404 135 3 0.41 8.64137 10.8023 -17.4308
405 135 5 -0.82 9.57115 10.9115 -16.9839
406 136 3 0.41 3.19144 2.97993 14.7863
407 136 3 0.41 1.71862 2.53321 14.4243
408 136 5 -0.82 2.22778 3.33177 14.7364
409 137 3 0.41 0.0277827 4.42359 9.63342
410 137 3 0.41 1.06539 5.70561 9.35604
411 137 5 -0.82 0.604272 4.91218 8.90402
412 138 3 0.41 6.02158 9.97092 5.77667
413 138 3 0.41 5.56711 8.34676 5.86326
414 138 5 -0.82 5.32273 9.28155 6.10683
415 139 3 0.41 1.14103 6.47736 22.2588
416 139 3 0.41 2.58261 7.2007 22.0726
417 139 5 -0.82 1.55739 7.36326 22.1265
418 140 3 0.41 1.51769 1.87818 -3.79046
419 140 3 0.41 3.01159 2.67461 -3.8148
420 140 5 -0.82 2.43079 1.96287 -4.24192
421 141 3 0.41 3.95414 8.81099 -21.978
422 141 3 0.41 3.80874 9.91847 -20.7458
423 141 5 -0.82 3.76712 9.81652 -21.7844
424 142 3 0.41 10.5637 6.50616 -1.95758
425 142 3 0.41 10.431 8.0455 -2.25765
426 142 5 -0.82 9.99781 7.15957 -2.43436
427 143 3 0.41 12.2008 9.93807 8.71736
428 143 3 0.41 12.3693 10.5622 7.19243
429 143 5 -0.82 12.0729 10.7681 8.20264
430 144 3 0.41 10.4071 -1.16547 -8.63515
431 144 3 0.41 10.3267 11.1674 -8.50656
432 144 5 -0.82 10.6007 11.9394 -9.10183
433 145 3 0.41 7.30428 -0.445737 -7.57888
434 145 3 0.41 8.74894 -0.174178 -7.92877
435 145 5 -0.82 8.21313 -0.863741 -7.40141
436 146 3 0.41 0.23045 9.48639 -1.89731
437 146 3 0.41 -0.115601 10.6844 -2.81101
438 146 5 -0.82 0.527946 10.4915 -2.05531
439 147 3 0.41 6.07913 -1.16703 -5.34732
440 147 3 0.41 7.29154 -0.872267 -4.3019
441 147 5 -0.82 6.54719 -0.433859 -4.91561
442 148 3 0.41 12.0361 8.95406 18.4025
443 148 3 0.41 12.0685 10.0653 19.4435
444 148 5 -0.82 12.2755 9.08859 19.3517
445 149 3 0.41 10.5769 0.625851 -4.86859
446 149 3 0.41 9.17043 -0.27684 -5.17538
447 149 5 -0.82 9.82326 0.399467 -5.53625
448 150 3 0.41 3.15682 11.5325 -19.3263
449 150 3 0.41 3.48342 10.1507 -18.5048
450 150 5 -0.82 3.08576 10.5094 -19.3671
451 151 3 0.41 2.59857 7.95879 5.90406
452 151 3 0.41 3.77034 6.93616 6.27659
453 151 5 -0.82 2.89352 7.30846 6.65771
454 152 3 0.41 6.84892 0.779703 5.64724
455 152 3 0.41 6.6629 1.40371 7.14768
456 152 5 -0.82 7.31334 0.814895 6.54089
457 153 3 0.41 3.1855 7.94121 8.12182
458 153 3 0.41 2.03138 8.64897 9.03184
459 153 5 -0.82 2.96034 8.23412 9.0473
460 154 3 0.41 4.17325 1.37056 -16.3253
461 154 3 0.41 4.692 0.00106121 -15.6162
462 154 5 -0.82 4.21396 0.346879 -16.4733
463 155 3 0.41 5.6231 1.41228 20.9943
464 155 3 0.41 6.32912 2.24054 22.0203
465 155 5 -0.82 6.38688 1.31212 21.6045
466 156 3 0.41 3.88483 -0.396701 -19.4336
467 156 3 0.41 2.67061 -0.0246213 -18.6796
468 156 5 -0.82 2.95208 -0.767418 -19.2467
469 157 3 0.41 8.88653 -0.172897 19.1992
470 157 3 0.41 7.53221 -0.343816 18.6154
471 157 5 -0.82 8.21529 -0.927232 19.0468
472 158 3 0.41 5.10901 8.88002 -9.36707
473 158 3 0.41 5.44474 10.1577 -10.1981
474 158 5 -0.82 5.40343 9.15916 -10.2772
475 159 3 0.41 6.93949 2.03955 -15.3759
476 159 3 0.41 8.11302 2.38544 -14.3705
477 159 5 -0.82 7.37813 1.76917 -14.5338
478 160 3 0.41 12.3388 4.51107 16.3994
479 160 3 0.41 11.6687 3.38643 17.2679
480 160 5 -0.82 12.4271 3.53157 16.6156
481 161 3 0.41 4.19441 2.8679 -12.2613
482 161 3 0.41 4.25217 4.24058 -11.3548
483 161 5 -0.82 3.6221 3.61625 -11.8555
484 162 3 0.41 -0.734297 7.45165 -1.22802
485 162 3 0.41 0.84165 7.83616 -0.966226
486 162 5 -0.82 -0.0416961 8.15382 -1.39115
487 163 3 0.41 6.00398 4.4709 -2.41268
488 163 3 0.41 5.58691 3.03629 -3.11419
489 163 5 -0.82 5.48492 4.05484 -3.20771
490 164 3 0.41 3.87281 10.8936 -4.96007
491 164 3 0.41 5.06543 11.2333 -5.9239
492 164 5 -0.82 4.25966 11.6914 -5.49976
493 165 3 0.41 1.04863 1.72981 16.761
494 165 3 0.41 -0.237448 2.48493 16.555
495 165 5 -0.82 0.171462 1.64519 16.2572
496 166 3 0.41 5.72417 5.88697 15.1896
497 166 3 0.41 7.16011 5.35008 15.7692
498 166 5 -0.82 6.19511 5.02119 15.539
499 167 3 0.41 0.881203 1.37569 -16.5653
500 167 3 0.41 2.31931 1.44813 -17.1365
501 167 5 -0.82 1.48019 1.02415 -17.2967
502 168 3 0.41 0.153542 3.59162 -6.53066
503 168 3 0.41 -1.3687 3.59799 -6.36375
504 168 5 -0.82 -0.66432 3.29738 -7.04216
505 169 3 0.41 -0.206792 1.15034 -6.30765
506 169 3 0.41 0.651348 -0.149442 -5.6804
507 169 5 -0.82 -0.0170313 0.605157 -5.45843
508 170 3 0.41 5.54202 -0.532541 2.24319
509 170 3 0.41 4.31694 -1.29015 1.64128
510 170 5 -0.82 4.70101 -1.02812 2.56161
511 171 3 0.41 0.537231 1.92412 8.22248
512 171 3 0.41 1.5542 0.691398 8.32008
513 171 5 -0.82 1.36359 1.6026 8.75726
514 172 3 0.41 2.68231 -0.978605 21.019
515 172 3 0.41 2.84131 0.099624 22.242
516 172 5 -0.82 2.78626 -0.899459 22.0192
517 173 3 0.41 11.4759 1.10194 5.5123
518 173 3 0.41 10.3871 0.0922004 5.11118
519 173 5 -0.82 10.8276 0.447732 5.94609
520 174 3 0.41 4.53301 -0.398573 19.9341
521 174 3 0.41 5.45804 12.4854 20.8008
522 174 5 -0.82 4.98108 -1.29315 19.9122
523 175 3 0.41 6.58666 2.78599 10.4555
524 175 3 0.41 7.76032 1.96068 9.58521
525 175 5 -0.82 7.32199 2.87578 9.72908
526 176 3 0.41 5.98527 1.9362 3.89529
527 176 3 0.41 5.17627 0.452006 3.90097
528 176 5 -0.82 5.64651 1.15373 4.48387
529 177 3 0.41 5.83591 0.280076 12.4605
530 177 3 0.41 4.9689 1.26294 11.4911
531 177 5 -0.82 5.86734 0.819316 11.6227
532 178 3 0.41 9.33021 9.84305 -9.99346
533 178 3 0.41 9.01597 8.96462 -11.3279
534 178 5 -0.82 9.75615 9.50903 -10.8826
535 179 3 0.41 11.377 6.7493 -22.2219
536 179 3 0.41 12.0342 5.28185 -21.9817
537 179 5 -0.82 11.125 5.79069 -22.0916
538 180 3 0.41 5.85642 11.0957 -2.5416
539 180 3 0.41 4.54331 10.1477 -2.75996
540 180 5 -0.82 5.50105 10.4101 -3.14649
541 181 3 0.41 -1.02172 11.5172 -5.80383
542 181 3 0.41 -0.234868 10.6297 -6.86843
543 181 5 -0.82 -0.563213 11.584 -6.66949
544 182 3 0.41 2.0976 4.42085 -11.6294
545 182 3 0.41 0.534454 4.46437 -11.22
546 182 5 -0.82 1.41409 5.04665 -11.3051
547 183 3 0.41 0.948631 7.58731 -13.3514
548 183 3 0.41 1.08077 6.06959 -12.5317
549 183 5 -0.82 1.00458 6.54216 -13.4546
550 184 3 0.41 0.793476 7.86989 20.5915
551 184 3 0.41 -0.334382 7.98067 19.4567
552 184 5 -0.82 0.569226 7.56864 19.6301
553 185 3 0.41 9.72856 6.14372 -18.2891
554 185 3 0.41 9.12983 5.65961 -16.8883
555 185 5 -0.82 9.94759 6.07466 -17.2748
556 186 3 0.41 10.6739 12.2203 -13.4238
557 186 3 0.41 9.50769 -1.20634 -12.5277
558 186 5 -0.82 10.0653 11.9644 -12.6443
559 187 3 0.41 2.82835 4.7084 5.11434
560 187 3 0.41 3.20518 3.29335 5.11997
561 187 5 -0.82 3.47166 4.08963 4.57785
562 188 3 0.41 12.0942 0.69633 -21.3846
563 188 3 0.41 -1.13398 -0.44777 -22.2669
564 188 5 -0.82 11.9677 -0.231351 -21.8145
565 189 3 0.41 0.146972 5.86111 16.1931
566 189 3 0.41 0.739845 4.77557 15.0898
567 189 5 -0.82 0.358742 5.73731 15.1528
568 190 3 0.41 1.19637 11.1722 5.97202
569 190 3 0.41 1.21068 10.2469 7.35201
570 190 5 -0.82 1.7934 10.6493 6.61078
571 191 3 0.41 6.11443 -0.972531 14.5697
572 191 3 0.41 6.96725 0.524518 14.5859
573 191 5 -0.82 6.11612 0.043121 14.2749
574 192 3 0.41 7.14709 12.4077 22.4772
575 192 3 0.41 6.27951 -0.340929 22.4297
576 192 5 -0.82 6.19186 -1.37329 22.336
577 193 3 0.41 2.99987 12.3009 13.7943
578 193 3 0.41 4.1092 -0.539381 13.6905
579 193 5 -0.82 3.87996 -1.46301 13.381
580 194 3 0.41 12.4397 8.84617 5.00326
581 194 3 0.41 -1.11941 8.31871 6.36633
582 194 5 -0.82 -1.26209 9.24281 5.89501
583 195 3 0.41 8.96191 6.18123 13.5
584 195 3 0.41 8.63498 5.03801 12.5608
585 195 5 -0.82 8.63093 5.1832 13.525
586 196 3 0.41 7.75483 -0.667298 -22.4355
587 196 3 0.41 6.46081 0.329824 -22.3211
588 196 5 -0.82 6.73087 -0.656401 -22.2946
589 197 3 0.41 9.9789 11.6333 6.85683
590 197 3 0.41 8.89917 11.7831 8.03449
591 197 5 -0.82 9.67569 12.2412 7.59713
592 198 3 0.41 -0.768459 5.21067 -18.0988
593 198 3 0.41 12.4363 4.65691 -16.9865
594 198 5 -0.82 -0.572202 4.71324 -17.2171
595 199 3 0.41 -0.628903 2.66725 -15.4356
596 199 3 0.41 -0.276618 1.29394 -14.644
597 199 5 -0.82 -0.251909 1.72192 -15.5593
598 200 3 0.41 11.8177 6.96477 4.94843
599 200 3 0.41 10.3403 6.96172 4.40494
600 200 5 -0.82 10.9716 6.42295 4.99775
601 201 3 0.41 8.94262 6.89221 10.5591
602 201 3 0.41 9.35235 8.42993 10.6357
603 201 5 -0.82 8.60145 7.82666 10.3613
604 202 3 0.41 6.86228 4.51745 -19.233
605 202 3 0.41 6.04676 5.6299 -18.2341
606 202 5 -0.82 6.55927 5.46077 -19.1203
607 203 3 0.41 1.70088 8.5575 12.3737
608 203 3 0.41 0.51815 7.70364 11.8934
609 203 5 -0.82 1.04875 8.48599 11.625
610 204 3 0.41 6.47186 12.2422 -20.9408
611 204 3 0.41 5.60469 12.3906 -19.7411
612 204 5 -0.82 5.96809 11.6435 -20.2859
613 205 3 0.41 11.7302 -0.276376 -11.3936
614 205 3 0.41 10.9546 0.814767 -12.2629
615 205 5 -0.82 11.1715 0.562066 -11.3022
616 206 3 0.41 8.77368 2.74827 6.78529
617 206 3 0.41 10.2951 3.39136 6.98504
618 206 5 -0.82 9.59373 2.75169 7.37145
619 207 3 0.41 4.24569 6.40961 8.77269
620 207 3 0.41 3.91285 5.27365 7.81368
621 207 5 -0.82 4.71343 5.80597 8.18249
622 208 3 0.41 1.97569 6.5431 13.0983
623 208 3 0.41 3.4341 6.24486 12.8585
624 208 5 -0.82 2.87344 6.80029 13.4861
625 209 3 0.41 10.0015 6.60446 -11.5543
626 209 3 0.41 9.72082 5.36083 -10.5074
627 209 5 -0.82 9.27977 6.00237 -11.2156
628 210 3 0.41 7.68849 6.55336 17.5356
629 210 3 0.41 7.98304 7.66506 16.464
630 210 5 -0.82 8.19936 6.71745 16.7218
631 211 3 0.41 0.314962 6.20043 4.58799
632 211 3 0.41 1.72846 6.19031 3.79881
633 211 5 -0.82 1.14044 5.66746 4.47612
634 212 3 0.41 11.9305 6.49223 18.0857
635 212 3 0.41 11.0662 5.38696 18.9474
636 212 5 -0.82 11.2789 6.39417 18.8728
637 213 3 0.41 12.2466 7.41226 10.0774
638 213 3 0.41 11.6427 7.41656 8.56446
639 213 5 -0.82 12.1696 7.94128 9.23539
640 214 3 0.41 10.675 4.47319 3.22327
641 214 3 0.41 10.0944 5.15869 1.9983
642 214 5 -0.82 9.8029 4.74886 2.83112
643 215 3 0.41 4.94161 9.62385 -16.7338
644 215 3 0.41 3.67535 8.66962 -16.2739
645 215 5 -0.82 4.11075 9.11437 -17.0636
646 216 3 0.41 7.11318 -0.0106944 9.01176
647 216 3 0.41 8.37557 -0.336984 9.91485
648 216 5 -0.82 8.08482 0.288047 9.1836
649 217 3 0.41 9.64795 6.86153 -8.8419
650 217 3 0.41 8.68127 6.20161 -7.77846
651 217 5 -0.82 8.80237 7.06569 -8.34571
652 218 3 0.41 1.76021 3.40681 2.25942
653 218 3 0.41 0.853221 2.15281 2.04719
654 218 5 -0.82 1.07803 2.85608 2.75991
655 219 3 0.41 11.4467 2.06193 -7.5615
656 219 3 0.41 10.2334 1.77194 -6.4767
657 219 5 -0.82 10.5195 2.36764 -7.24524
658 220 3 0.41 9.23795 7.69145 22.1157
659 220 3 0.41 10.3844 6.62839 22.6413
660 220 5 -0.82 9.74833 6.82891 21.879
661 221 3 0.41 8.55289 -0.222677 -15.4369
662 221 3 0.41 8.7937 12.3041 -15.9851
663 221 5 -0.82 8.0669 -1.10771 -15.5848
664 222 3 0.41 0.9062 11.3467 -22.1812
665 222 3 0.41 1.97724 10.0792 -22.0594
666 222 5 -0.82 1.00227 10.3889 -21.8786
667 223 3 0.41 -1.318 3.15286 1.90383
668 223 3 0.41 11.5485 2.36511 1.10901
669 223 5 -0.82 -1.45397 2.66131 1.06722
670 224 3 0.41 4.84818 12.1331 11.8721
671 224 3 0.41 6.08863 11.1472 11.7079
672 224 5 -0.82 5.42643 11.6685 11.1797
673 225 3 0.41 -0.164327 3.31154 -2.52224
674 225 3 0.41 -0.912242 2.64128 -4.00278
675 225 5 -0.82 -0.0955001 2.69046 -3.36532
676 226 3 0.41 10.0938 3.24647 19.2038
677 226 3 0.41 11.6707 2.98786 18.9048
678 226 5 -0.82 11.0021 3.7262 19.0504
679 227 3 0.41 0.0800317 3.94236 22.32
680 227 3 0.41 0.415668 4.38019 21.0256
681 227 5 -0.82 0.263849 4.83496 21.9265
682 228 3 0.41 10.1555 7.49931 -4.31596
683 228 3 0.41 10.656 6.49402 -5.4022
684 228 5 -0.82 10.224 7.40895 -5.28385
685 229 3 0.41 6.17126 5.44219 -20.6859
686 229 3 0.41 6.96629 4.77957 -21.8889
687 229 5 -0.82 5.97793 5.07128 -21.6375
688 230 3 0.41 9.63365 11.4668 2.54185
689 230 3 0.41 9.32142 11.0982 0.99683
690 230 5 -0.82 9.88915 10.8068 1.80696
691 231 3 0.41 -0.333134 0.604888 -0.620993
692 231 3 0.41 -0.311105 1.67197 -1.9162
693 231 5 -0.82 -0.826769 0.892491 -1.49422
694 232 3 0.41 10.5621 8.40792 -6.64259
695 232 3 0.41 10.432 9.98542 -6.70497
696 232 5 -0.82 11.0522 9.20537 -7.03658
697 233 3 0.41 4.62024 7.60297 -7.8419
698 233 3 0.41 4.3933 8.66439 -6.65756
699 233 5 -0.82 4.11263 8.43536 -7.60882
700 234 3 0.41 3.02932 3.91294 -1.18233
701 234 3 0.41 4.00939 4.00197 -2.53774
702 234 5 -0.82 3.15953 3.55795 -2.18005
703 235 3 0.41 0.0271658 0.778865 12.0021
704 235 3 0.41 0.665614 -0.0887654 13.1519
705 235 5 -0.82 0.805668 0.769813 12.6759
706 236 3 0.41 5.41582 6.7853 -6.24313
707 236 3 0.41 6.70013 6.27114 -6.7086
708 236 5 -0.82 5.83693 6.50377 -7.09614
709 237 3 0.41 7.63822 9.26819 15.4324
710 237 3 0.41 8.03919 9.70756 17.0019
711 237 5 -0.82 7.3586 9.15826 16.4016
712 238 3 0.41 11.4514 9.56277 13.2041
713 238 3 0.41 12.4586 8.60376 13.871
714 238 5 -0.82 12.0663 8.80634 12.9187
715 239 3 0.41 -0.222324 2.76599 6.59596
716 239 3 0.41 -1.22399 3.41208 7.65513
717 239 5 -0.82 -0.716104 2.53612 7.49744
718 240 3 0.41 1.26877 10.0354 -14.1732
719 240 3 0.41 0.14802 9.49678 -13.0942
720 240 5 -0.82 1.07864 9.31958 -13.4264
721 241 3 0.41 9.37548 2.67644 1.16104
722 241 3 0.41 9.19206 1.66518 2.41606
723 241 5 -0.82 9.77234 1.8691 1.58787
724 242 3 0.41 8.76849 12.3395 -1.20913
725 242 3 0.41 9.68454 -0.836866 -0.282776
726 242 5 -0.82 8.99489 12.4129 -0.229932
727 243 3 0.41 11.7476 11.0569 -14.8281
728 243 3 0.41 -1.4293 12.4327 -15.1314
729 243 5 -0.82 11.7328 12.0737 -14.7802
730 244 3 0.41 12.343 -1.26286 22.1821
731 244 3 0.41 11.0501 -0.483094 21.756
732 244 5 -0.82 11.3268 -1.39333 22.0694
733 245 3 0.41 5.80589 0.655638 -20.5042
734 245 3 0.41 5.98601 0.318107 -18.8478
735 245 5 -0.82 5.34103 0.300328 -19.6569
736 246 3 0.41 11.0518 0.536355 17.6793
737 246 3 0.41 10.7706 0.615296 16.1267
738 246 5 -0.82 10.3285 0.707392 17.01
739 247 3 0.41 0.626885 -0.00210469 19.3086
740 247 3 0.41 1.26904 -1.43191 19.2542
741 247 5 -0.82 1.56896 -0.478847 19.2562
742 248 3 0.41 -0.581703 8.44922 3.1337
743 248 3 0.41 11.8715 8.02531 2.90539
744 248 5 -0.82 -1.41049 8.09782 3.62524
745 249 3 0.41 7.9519 4.53845 -12.8537
746 249 3 0.41 8.85962 5.65743 -13.6403
747 249 5 -0.82 8.07583 5.02984 -13.7227
748 250 3 0.41 5.86504 6.73091 21.9286
749 250 3 0.41 7.47843 7.19115 22.0327
750 250 5 -0.82 6.83848 6.40489 21.8542
751 251 3 0.41 6.41599 11.5993 16.0854