ITEM: TIMESTEP
35000
ITEM: NUMBER OF ATOMS
1360
ITEM: BOX BOUNDS pp pp pp
-1.5000000000000000e+00 1.2500000000000000e+01
-1.5000000000000000e+00 1.2500000000000000e+01
-2.7500000000000000e+01 2.7500000000000000e+01
ITEM: ATOMS id mol type q x y z
1 1 3 0.41 7.27552 8.62988 9.41712
2 1 3 0.41 6.37088 9.64227 8.66488
3 1 5 -0.82 6.31018 9.01455 9.41949
4 2 3 0.41 8.74299 5.60176 -12.1983
5 2 3 0.41 10.0614 6.20287 -11.4998
6 2 5 -0.82 9.03272 6.09163 -11.3259
7 3 3 0.41 10.0239 -0.1695 17.4606
8 3 3 0.41 9.51996 1.24964 18.1161
9 3 5 -0.82 9.55561 0.70095 17.2394
10 4 3 0.41 7.41668 3.68983 -15.6068
11 4 3 0.41 7.72551 3.98312 -17.1469
12 4 5 -0.82 6.98359 3.63689 -16.536
13 5 3 0.41 11.5868 9.04197 -5.70415
14 5 3 0.41 11.0541 10.2026 -6.79064
15 5 5 -0.82 11.8719 9.8459 -6.30331
16 6 3 0.41 2.8782 2.62683 -17.6201
17 6 3 0.41 3.69143 1.59013 -16.7237
18 6 5 -0.82 3.7512 2.52245 -17.1464
19 7 3 0.41 1.16969 5.25963 -22.0544
20 7 3 0.41 -0.428652 5.70109 -21.9518
21 7 5 -0.82 0.205485 4.91655 -21.9737
22 8 3 0.41 4.74551 5.83645 16.5897
23 8 3 0.41 3.28509 6.03568 16.0581
24 8 5 -0.82 4.03524 6.55405 16.5348
25 9 3 0.41 6.38044 11.8688 -17.1487
26 9 3 0.41 4.74997 11.7984 -17.1845
27 9 5 -0.82 5.52066 11.9267 -16.5842
28 10 3 0.41 9.88802 0.385031 2.69515
29 10 3 0.41 11.5345 0.302687 2.52173
30 10 5 -0.82 10.7723 0.902193 2.77126
31 11 3 0.41 5.26477 7.19819 -9.13299
32 11 3 0.41 6.46507 5.98021 -9.25985
33 11 5 -0.82 5.57381 6.31841 -9.61292
34 12 3 0.41 10.745 7.5413 -17.3942
35 12 3 0.41 10.212 8.71643 -16.6176
36 12 5 -0.82 10.0167 8.19562 -17.4821
37 13 3 0.41 4.47686 6.6131 3.14464
38 13 3 0.41 5.54591 6.39562 4.20948
39 13 5 -0.82 5.07068 7.17054 3.73423
40 14 3 0.41 8.12915 1.44554 -7.22526
41 14 3 0.41 8.83971 2.06323 -8.59857
42 14 5 -0.82 8.44875 1.25306 -8.18673
43 15 3 0.41 -1.1503 0.951042 10.8596
44 15 3 0.41 12.0929 2.12008 10.2499
45 15 5 -0.82 12.0329 1.09145 10.2247
46 16 3 0.41 12.2085 0.0250957 8.63518
47 16 3 0.41 -0.513923 0.0877523 7.52217
48 16 5 -0.82 -1.29561 -0.475008 7.88007
49 17 3 0.41 -0.297744 9.66907 21.4695
50 17 3 0.41 12.177 10.208 21.7437
51 17 5 -0.82 -1.28043 9.43806 21.3846
52 18 3 0.41 7.27448 3.75814 -10.3485
53 18 3 0.41 7.76166 2.42775 -11.0848
54 18 5 -0.82 7.29635 3.30258 -11.315
55 19 3 0.41 3.85865 1.05486 6.10413
56 19 3 0.41 2.8352 0.115287 5.42771
57 19 5 -0.82 2.89446 1.05557 5.77263
58 20 3 0.41 -1.44945 9.82031 -8.57869
59 20 3 0.41 -0.780078 8.45412 -7.90816
60 20 5 -0.82 -0.815767 9.02958 -8.75628
61 21 3 0.41 3.78683 10.2047 21.7947
62 21 3 0.41 4.76254 9.94366 23.044
63 21 5 -0.82 4.58066 9.68623 22.075
64 22 3 0.41 11.3696 0.182948 -19.3516
65 22 3 0.41 10.7805 -0.701804 -18.1078
66 22 5 -0.82 10.5278 -0.245662 -19.0014
67 23 3 0.41 8.89137 4.4632 -13.8607
68 23 3 0.41 7.65152 4.2716 -12.6966
69 23 5 -0.82 8.01647 4.85774 -13.4585
70 24 3 0.41 5.67384 0.271801 -18.3675
71 24 3 0.41 4.73022 0.670807 -19.7002
72 24 5 -0.82 4.98132 -0.113322 -19.0699
73 25 3 0.41 7.67666 9.63927 -13.4734
74 25 3 0.41 7.79073 8.96009 -12.1492
75 25 5 -0.82 8.40132 9.18801 -12.9242
76 26 3 0.41 2.65399 5.67971 -7.27472
77 26 3 0.41 2.14851 5.37004 -5.72756
78 26 5 -0.82 2.351 6.10053 -6.37842
79 27 3 0.41 10.5706 11.6877 -9.79236
80 27 3 0.41 9.09925 11.6837 -10.1903
81 27 5 -0.82 10.0216 11.9391 -10.5809
82 28 3 0.41 -0.31518 3.88432 -9.59967
83 28 3 0.41 -0.680235 2.4214 -10.0778
84 28 5 -0.82 -1.0932 3.33022 -10.0044
85 29 3 0.41 7.37946 9.98554 13.9431
86 29 3 0.41 8.82601 9.41093 13.9437
87 29 5 -0.82 8.04998 9.55556 14.5868
88 30 3 0.41 12.1787 2.83524 6.51464
89 30 3 0.41 12.1105 4.03055 7.32803
90 30 5 -0.82 12.1101 3.03895 7.52394
91 31 3 0.41 8.82107 6.54113 -17.6534
92 31 3 0.41 8.75157 6.4195 -16.0956
93 31 5 -0.82 8.17016 6.28921 -16.9347
94 32 3 0.41 -0.832999 1.69937 -18.7578
95 32 3 0.41 -0.260992 0.391434 -18.5906
96 32 5 -0.82 -0.5925 0.930859 -19.3742
97 33 3 0.41 6.45073 2.12004 -17.1421
98 33 3 0.41 7.19258 0.703945 -16.5724
99 33 5 -0.82 6.53506 1.10202 -17.2486
100 34 3 0.41 12.3849 5.78518 4.9762
101 34 3 0.41 -0.785624 4.65854 5.8182
102 34 5 -0.82 12.3772 5.23868 5.83634
103 35 3 0.41 5.08372 4.87591 14.3543
104 35 3 0.41 5.50115 3.26887 14.1177
105 35 5 -0.82 4.77899 3.95857 14.0258
106 36 3 0.41 11.1439 11.4635 -5.29533
107 36 3 0.41 11.0097 11.8092 -3.73419
108 36 5 -0.82 10.4704 11.5803 -4.53782
109 37 3 0.41 4.84035 -1.10699 22.0298
110 37 3 0.41 3.93532 0.182219 21.8633
111 37 5 -0.82 3.88787 -0.812403 21.7581
112 38 3 0.41 0.409433 10.025 2.9659
113 38 3 0.41 -0.943272 10.4562 3.47442
114 38 5 -0.82 -0.116102 10.0638 3.81325
115 39 3 0.41 7.59057 0.967732 -18.6957
116 39 3 0.41 9.05874 0.715292 -19.408
117 39 5 -0.82 8.09201 1.03101 -19.5948
118 40 3 0.41 5.39309 11.7096 -20.7833
119 40 3 0.41 4.81561 12.3627 -19.5387
120 40 5 -0.82 5.0887 11.4135 -19.873
121 41 3 0.41 2.06925 8.03943 -10.3122
122 41 3 0.41 2.76162 6.46121 -10.2574
123 41 5 -0.82 2.28919 7.16113 -10.8453
124 42 3 0.41 5.97859 -0.138864 10.1972
125 42 3 0.41 5.90703 -0.439808 11.8313
126 42 5 -0.82 6.46434 -0.582937 10.988
127 43 3 0.41 10.3736 10.7774 16.5981
128 43 3 0.41 12.0509 10.678 16.6364
129 43 5 -0.82 11.222 10.7022 16.037
130 44 3 0.41 2.21383 -0.917351 -19.8026
131 44 3 0.41 1.6313 11.5802 -20.071
132 44 5 -0.82 2.22803 12.3128 -20.5061
133 45 3 0.41 7.65517 7.63987 -0.954345
134 45 3 0.41 7.15227 8.92237 0.0707377
135 45 5 -0.82 6.87272 8.03457 -0.357132
136 46 3 0.41 5.52788 2.81155 19.4485
137 46 3 0.41 6.46074 1.50498 18.9597
138 46 5 -0.82 6.31968 2.50206 18.8229
139 47 3 0.41 9.64874 8.05596 6.59934
140 47 3 0.41 8.59942 8.99098 5.697
141 47 5 -0.82 9.18188 8.95702 6.56325
142 48 3 0.41 -0.231621 7.17556 21.9592
143 48 3 0.41 -1.02418 5.88383 22.484
144 48 5 -0.82 -1.06699 6.6248 21.7849
145 49 3 0.41 9.2303 5.62688 -8.17087
146 49 3 0.41 8.7549 6.10332 -9.5626
147 49 5 -0.82 8.41004 5.94839 -8.61399
148 50 3 0.41 -1.48503 8.10185 16.0962
149 50 3 0.41 -1.48435 7.98962 17.6586
150 50 5 -0.82 11.8674 8.06455 16.8916
151 51 3 0.41 -0.0638063 9.23232 12.6749
152 51 3 0.41 -0.181745 9.76786 11.1473
153 51 5 -0.82 -0.369219 8.95944 11.7531
154 52 3 0.41 9.44955 0.579583 -10.8356
155 52 3 0.41 8.13681 0.0944847 -11.5333
156 52 5 -0.82 8.51578 0.946883 -11.0857
157 53 3 0.41 10.4693 9.15873 3.74618
158 53 3 0.41 11.5209 8.25888 4.64533
159 53 5 -0.82 10.6441 8.26048 4.20344
160 54 3 0.41 12.3724 6.64861 14.7518
161 54 3 0.41 10.9528 6.44202 14.015
162 54 5 -0.82 11.842 6.93494 13.9804
163 55 3 0.41 6.93791 6.77687 6.59478
164 55 3 0.41 6.67458 7.93086 7.71662
165 55 5 -0.82 6.42729 7.61769 6.77704
166 56 3 0.41 -0.565255 12.0621 -1.93663
167 56 3 0.41 12.1569 10.9665 -1.87265
168 56 5 -0.82 12.43 11.965 -2.06192
169 57 3 0.41 0.544357 1.66576 -21.6343
170 57 3 0.41 0.814311 3.18393 -22.0511
171 57 5 -0.82 1.32474 2.31119 -21.8219
172 58 3 0.41 10.5532 10.6263 -22.5888
173 58 3 0.41 10.4205 9.26654 -21.6848
174 58 5 -0.82 11.0847 9.99401 -21.9789
175 59 3 0.41 7.23829 11.1797 9.28059
176 59 3 0.41 7.58006 11.6467 10.7718
177 59 5 -0.82 8.00199 11.2022 9.96354
178 60 3 0.41 2.20554 -0.32549 -8.09362
179 60 3 0.41 3.7502 -0.0918437 -8.16388
180 60 5 -0.82 2.90723 0.143333 -8.65721
181 61 3 0.41 1.26868 0.692215 19.0944
182 61 3 0.41 1.24029 1.76899 17.9021
183 61 5 -0.82 1.27435 1.66974 18.8889
184 62 3 0.41 5.1067 10.7164 2.21372
185 62 3 0.41 6.27444 10.9213 1.19013
186 62 5 -0.82 5.33527 11.2302 1.34354
187 63 3 0.41 7.14628 -0.939677 19.379
188 63 3 0.41 8.19942 -0.0936999 18.5822
189 63 5 -0.82 7.4615 -0.00926251 19.2384
190 64 3 0.41 6.85031 8.62508 3.97453
191 64 3 0.41 7.67807 9.9727 3.6441
192 64 5 -0.82 7.74022 9.08378 4.11301
193 65 3 0.41 6.82667 11.6479 -1.41148
194 65 3 0.41 5.90833 12.3722 -0.401071
195 65 5 -0.82 6.74947 -1.45084 -0.93337
196 66 3 0.41 11.0968 5.40516 0.469751
197 66 3 0.41 9.75675 5.81001 1.13993
198 66 5 -0.82 10.2817 5.00953 0.990139
199 67 3 0.41 3.7062 3.36687 18.8381
200 67 3 0.41 3.29697 4.37033 20.0169
201 67 5 -0.82 3.90679 3.55995 19.8684
202 68 3 0.41 4.36539 0.80938 20.0955
203 68 3 0.41 2.97765 1.01534 19.3833
204 68 5 -0.82 3.89872 0.635828 19.2116
205 69 3 0.41 5.17088 10.1872 -22.1689
206 69 3 0.41 3.65277 10.7522 -22.234
207 69 5 -0.82 4.1966 9.89619 -22.1855
208 70 3 0.41 2.84874 4.61558 -19.0019
209 70 3 0.41 2.59346 4.24238 -20.5959
210 70 5 -0.82 2.51233 3.86585 -19.6183
211 71 3 0.41 9.77789 4.25531 9.20173
212 71 3 0.41 10.5555 3.00425 8.48011
213 71 5 -0.82 9.65569 3.47895 8.5221
214 72 3 0.41 1.44315 12.1658 19.5891
215 72 3 0.41 0.275778 -0.916088 19.0481
216 72 5 -0.82 1.2772 -0.915061 19.2064
217 73 3 0.41 11.0381 8.81721 -11.2361
218 73 3 0.41 9.85509 9.01008 -12.4654
219 73 5 -0.82 10.8551 9.13484 -12.2323
220 74 3 0.41 0.966491 2.88416 0.266734
221 74 3 0.41 1.86187 4.00378 0.944021
222 74 5 -0.82 0.926439 3.68052 0.877908
223 75 3 0.41 5.68136 7.4133 -6.16084
224 75 3 0.41 6.71019 6.16371 -6.10427
225 75 5 -0.82 6.64268 7.16121 -5.90415
226 76 3 0.41 6.89655 6.14509 -13.6112
227 76 3 0.41 6.14378 6.96607 -14.7791
228 76 5 -0.82 6.26971 6.93223 -13.7689
229 77 3 0.41 0.831683 9.93017 14.5344
230 77 3 0.41 -0.701033 10.2518 14.3367
231 77 5 -0.82 -0.0503307 9.47831 14.4244
232 78 3 0.41 2.49258 -0.310393 -11.9045
233 78 3 0.41 2.90187 1.26645 -12.1802
234 78 5 -0.82 2.58592 0.601241 -11.4833
235 79 3 0.41 5.407 0.506993 -4.29983
236 79 3 0.41 6.58029 1.73248 -4.59781
237 79 5 -0.82 5.94628 1.26946 -3.9841
238 80 3 0.41 10.8428 6.43646 -22.2514
239 80 3 0.41 10.5211 4.8265 -21.9684
240 80 5 -0.82 10.1181 5.77803 -21.9438
241 81 3 0.41 10.6415 -0.370203 -6.79485
242 81 3 0.41 9.65037 -0.0290845 -7.97582
243 81 5 -0.82 10.4644 -0.596701 -7.76722
244 82 3 0.41 0.592956 0.57258 4.10243
245 82 3 0.41 -0.384147 -0.144515 3.12431
246 82 5 -0.82 -0.135633 -0.145609 4.12297
247 83 3 0.41 9.11638 7.09371 9.34148
248 83 3 0.41 9.23493 8.29068 8.40895
249 83 5 -0.82 8.59547 7.96361 9.1367
250 84 3 0.41 4.17838 11.7747 11.0517
251 84 3 0.41 4.99598 11.2676 9.86111
252 84 5 -0.82 4.40707 10.9138 10.6178
253 85 3 0.41 5.09039 5.28563 22.5356
254 85 3 0.41 4.97397 4.37558 21.1717
255 85 5 -0.82 5.4572 4.46126 22.014
256 86 3 0.41 6.58396 2.96802 -19.0699
257 86 3 0.41 4.96374 3.01891 -18.609
258 86 5 -0.82 5.65534 3.04971 -19.382
259 87 3 0.41 0.739972 11.7066 12.2669
260 87 3 0.41 2.32783 11.5004 12.4737
261 87 5 -0.82 1.54364 11.1213 11.9696
262 88 3 0.41 1.55173 3.68903 12.2566
263 88 3 0.41 1.31952 5.23536 11.9078
264 88 5 -0.82 1.55065 4.35847 11.5052
265 89 3 0.41 1.00737 7.10856 -16.6273
266 89 3 0.41 2.19024 7.9849 -16.3092
267 89 5 -0.82 1.16449 8.08103 -16.4012
268 90 3 0.41 7.19788 -1.44502 -9.59181
269 90 3 0.41 7.2922 -0.119516 -8.78909
270 90 5 -0.82 6.64618 -0.637376 -9.31645
271 91 3 0.41 3.89785 11.5409 -1.01539
272 91 3 0.41 4.15909 10.3536 0.122353
273 91 5 -0.82 3.47003 10.6882 -0.574654
274 92 3 0.41 5.90709 1.71868 5.24908
275 92 3 0.41 5.63357 0.182668 5.77746
276 92 5 -0.82 5.56615 1.17949 5.99924
277 93 3 0.41 0.93532 2.14897 12.604
278 93 3 0.41 -0.413101 1.34496 12.6719
279 93 5 -0.82 0.207862 1.7999 12.0185
280 94 3 0.41 -0.165063 3.65036 2.13534
281 94 3 0.41 -1.06758 4.6164 2.98737
282 94 5 -0.82 -1.10265 3.6659 2.65232
283 95 3 0.41 8.26965 -0.0288359 16.4089
284 95 3 0.41 7.70618 -0.648434 14.9168
285 95 5 -0.82 7.59497 -0.628697 15.9469
286 96 3 0.41 1.40886 11.4688 10.1099
287 96 3 0.41 1.25295 -1.20156 9.39482
288 96 5 -0.82 1.49842 11.856 9.17694
289 97 3 0.41 3.24223 6.53129 18.4652
290 97 3 0.41 2.08537 5.79199 19.2496
291 97 5 -0.82 3.0649 6.02681 19.3321
292 98 3 0.41 6.05432 2.49256 -12.0562
293 98 3 0.41 5.44252 1.04186 -12.3851
294 98 5 -0.82 5.61267 1.93608 -12.8311
295 99 3 0.41 2.97623 8.87161 1.6058
296 99 3 0.41 2.0116 10.028 2.11913
297 99 5 -0.82 2.04604 9.05101 1.90905
298 100 3 0.41 1.4237 11.6198 -7.62362
299 100 3 0.41 1.62963 11.999 -9.17904
300 100 5 -0.82 0.975002 12.0655 -8.39551
301 101 3 0.41 -0.692882 11.8819 -8.6746
302 101 3 0.41 11.8881 12.3931 -8.51169
303 101 5 -0.82 12.421 11.8608 -9.19139
304 102 3 0.41 1.66324 9.70716 -18.9713
305 102 3 0.41 0.134253 9.44067 -19.4001
306 102 5 -0.82 0.856416 10.1448 -19.4689
307 103 3 0.41 6.94443 2.49525 8.98963
308 103 3 0.41 8.20331 3.165 8.22186
309 103 5 -0.82 7.2977 2.68882 8.02378
310 104 3 0.41 3.55759 4.16046 -17.1395
311 104 3 0.41 2.18863 5.02404 -17.3314
312 104 5 -0.82 3.18223 5.11527 -17.3359
313 105 3 0.41 10.2955 8.4229 0.495112
314 105 3 0.41 10.1767 8.26646 2.09727
315 105 5 -0.82 9.69867 8.10287 1.25083
316 106 3 0.41 0.709172 7.18039 -11.9862
317 106 3 0.41 0.0899781 6.08842 -12.9545
318 106 5 -0.82 0.0743854 7.06831 -12.7465
319 107 3 0.41 7.71686 7.25663 -11.3461
320 107 3 0.41 6.50703 7.63113 -10.3992
321 107 5 -0.82 7.28919 8.06386 -10.9036
322 108 3 0.41 2.85758 10.3024 -10.6858
323 108 3 0.41 2.9986 11.5739 -11.685
324 108 5 -0.82 2.40172 11.1695 -10.9708
325 109 3 0.41 -1.27469 10.0816 -22.2288
326 109 3 0.41 0.0732049 10.485 -21.3715
327 109 5 -0.82 -0.262709 10.0086 -22.2024
328 110 3 0.41 2.09479 10.4552 -14.7328
329 110 3 0.41 2.93223 10.3377 -16.1723
330 110 5 -0.82 2.41905 10.9751 -15.5723
331 111 3 0.41 1.31029 8.7295 -13.7299
332 111 3 0.41 2.50831 9.17205 -12.7372
333 111 5 -0.82 1.70633 9.54261 -13.2366
334 112 3 0.41 -1.41444 12.2458 -16.8533
335 112 3 0.41 11.6062 -0.61409 -16.3564
336 112 5 -0.82 11.6117 -1.45857 -16.9623
337 113 3 0.41 1.72942 1.19568 16.0578
338 113 3 0.41 1.34785 2.22355 14.9563
339 113 5 -0.82 0.956266 1.72937 15.7544
340 114 3 0.41 11.9716 0.645629 -14.0764
341 114 3 0.41 10.9311 -0.514931 -14.077
342 114 5 -0.82 11.3821 0.105138 -14.7442
343 115 3 0.41 4.32224 1.73485 1.48841
344 115 3 0.41 3.46286 3.08249 1.88699
345 115 5 -0.82 3.51705 2.10928 2.03472
346 116 3 0.41 -1.48678 1.52244 18.3973
347 116 3 0.41 -0.831774 0.934042 17.1126
348 116 5 -0.82 12.3516 1.48876 17.4075
349 117 3 0.41 3.55657 -1.4683 -21.3346
350 117 3 0.41 4.01029 -0.201825 -22.1528
351 117 5 -0.82 4.27614 -1.15968 -21.9815
352 118 3 0.41 11.2892 8.74657 -3.29431
353 118 3 0.41 11.5619 7.2588 -3.84922
354 118 5 -0.82 11.3887 8.26818 -4.16196
355 119 3 0.41 4.68361 3.10308 -10.3453
356 119 3 0.41 5.01353 2.05604 -9.19187
357 119 5 -0.82 4.19111 2.53196 -9.60982
358 120 3 0.41 2.10077 1.92889 -2.01252
359 120 3 0.41 2.523 1.98388 -0.457926
360 120 5 -0.82 1.73209 2.17256 -1.06631
361 121 3 0.41 5.18428 3.0201 -13.8562
362 121 3 0.41 5.7318 3.78516 -15.1633
363 121 5 -0.82 5.08427 3.90325 -14.4131
364 122 3 0.41 6.99514 4.34433 2.03378
365 122 3 0.41 7.5839 3.65049 3.41963
366 122 5 -0.82 7.13081 3.42978 2.51043
367 123 3 0.41 2.11579 2.2186 2.91232
368 123 3 0.41 2.21288 1.72507 4.41807
369 123 5 -0.82 1.56795 2.07577 3.73855
370 124 3 0.41 8.78336 1.66176 0.509877
371 124 3 0.41 8.40313 2.96736 1.36383
372 124 5 -0.82 9.15896 2.53802 0.872665
373 125 3 0.41 -1.173 8.09996 -21.785
374 125 3 0.41 12.3166 6.93471 -20.7422
375 125 5 -0.82 12.4568 7.1994 -21.6987
376 126 3 0.41 11.6954 5.339 -16.3006
377 126 3 0.41 11.0697 4.01559 -15.5048
378 126 5 -0.82 11.4754 4.31746 -16.3718
379 127 3 0.41 2.8083 2.44459 13.0549
380 127 3 0.41 2.52103 3.36162 14.3628
381 127 5 -0.82 2.02756 2.8603 13.6217
382 128 3 0.41 4.63723 6.30664 8.83363
383 128 3 0.41 4.10072 6.33816 10.4115
384 128 5 -0.82 4.18239 6.87362 9.53337
385 129 3 0.41 8.15786 0.396007 8.13825
386 129 3 0.41 6.66814 0.511714 7.69474
387 129 5 -0.82 7.4376 -0.15234 7.69409
388 130 3 0.41 5.24666 8.086 0.498706
389 130 3 0.41 4.12358 7.19918 1.10414
390 130 5 -0.82 4.25664 8.12666 0.708846
391 131 3 0.41 3.82857 7.06547 -11.7257
392 131 3 0.41 5.21543 7.37497 -12.6574
393 131 5 -0.82 4.49042 7.78072 -12.0412
394 132 3 0.41 0.463921 7.76589 -2.01908
395 132 3 0.41 1.36836 6.91663 -3.0194
396 132 5 -0.82 0.446761 7.31014 -2.94224
397 133 3 0.41 0.863555 11.7774 2.07219
398 133 3 0.41 2.30758 12.4318 2.53172
399 133 5 -0.82 1.74536 11.5721 2.56811
400 134 3 0.41 11.2532 1.76557 4.46444
401 134 3 0.41 12.2382 2.92725 4.53666
402 134 5 -0.82 12.0176 2.10179 5.00544
403 135 3 0.41 -1.40841 9.64954 -17.776
404 135 3 0.41 11.3139 9.01631 -18.5608
405 135 5 -0.82 12.2493 9.34307 -18.6779
406 136 3 0.41 5.81031 -0.152834 16.3346
407 136 3 0.41 5.11932 0.669598 17.6617
408 136 5 -0.82 5.05327 0.459306 16.662
409 137 3 0.41 3.70546 3.99572 5.81086
410 137 3 0.41 3.47373 3.54577 7.3554
411 137 5 -0.82 3.08263 4.1349 6.6238
412 138 3 0.41 9.49382 10.4638 10.3549
413 138 3 0.41 10.4707 9.75337 11.6406
414 138 5 -0.82 10.3425 9.95877 10.6136
415 139 3 0.41 1.89106 5.62107 21.6243
416 139 3 0.41 1.19418 4.4464 22.4317
417 139 5 -0.82 2.14784 4.77686 22.1472
418 140 3 0.41 7.2065 5.24547 -3.20148
419 140 3 0.41 7.10549 3.82939 -2.43609
420 140 5 -0.82 7.01749 4.26214 -3.34212
421 141 3 0.41 6.73093 5.45251 -21.7454
422 141 3 0.41 8.19907 5.50999 -22.265
423 141 5 -0.82 7.35617 6.14102 -22.1228
424 142 3 0.41 9.5654 3.58716 -2.45619
425 142 3 0.41 10.1778 4.12759 -1.15723
426 142 5 -0.82 9.79764 4.48154 -2.03124
427 143 3 0.41 0.57147 8.66048 8.80214
428 143 3 0.41 -0.844203 8.97967 8.10925
429 143 5 -0.82 0.0566357 9.41152 8.34413
430 144 3 0.41 12.243 9.87236 -11.6975
431 144 3 0.41 -0.943865 9.29789 -10.4226
432 144 5 -0.82 -0.811084 9.8802 -11.2611
433 145 3 0.41 -0.228607 11.9908 -4.64482
434 145 3 0.41 -0.803665 11.159 -5.81569
435 145 5 -0.82 -0.634074 12.1372 -5.55769
436 146 3 0.41 3.56798 6.69937 -5.05023
437 146 3 0.41 3.92351 7.72158 -3.81229
438 146 5 -0.82 3.83459 7.66791 -4.84571
439 147 3 0.41 9.28035 1.24833 -5.21785
440 147 3 0.41 8.18026 2.36973 -5.69843
441 147 5 -0.82 8.25252 1.37294 -5.52316
442 148 3 0.41 0.181666 6.87831 19.4984
443 148 3 0.41 0.64677 7.92689 18.3829
444 148 5 -0.82 -0.189059 7.6112 18.9178
445 149 3 0.41 -0.0797791 -0.425814 -6.43656
446 149 3 0.41 1.13996 0.433046 -6.18443
447 149 5 -0.82 0.381454 0.396989 -6.82587
448 150 3 0.41 7.11634 9.01077 -17.685
449 150 3 0.41 6.53838 8.02514 -16.4654
450 150 5 -0.82 6.79243 8.96689 -16.6785
451 151 3 0.41 2.72392 10.5289 8.74185
452 151 3 0.41 2.64357 9.02947 7.97428
453 151 5 -0.82 3.24652 9.67388 8.52608
454 152 3 0.41 8.38718 10.8806 6.53888
455 152 3 0.41 8.16197 12.4813 6.58633
456 152 5 -0.82 8.86376 11.7639 6.40761
457 153 3 0.41 2.54783 8.30856 12.2584
458 153 3 0.41 2.46544 9.81196 11.7175
459 153 5 -0.82 2.64573 8.81684 11.391
460 154 3 0.41 8.6752 -1.41969 -15.8188
461 154 3 0.41 8.63264 -0.828081 -17.2746
462 154 5 -0.82 8.61829 -0.494066 -16.3053
463 155 3 0.41 6.39531 1.5241 21.8754
464 155 3 0.41 5.24706 2.39087 22.5009
465 155 5 -0.82 5.38735 1.60349 21.8603
466 156 3 0.41 8.34083 11.7151 -19.0092
467 156 3 0.41 6.87361 12.1442 -19.2659
468 156 5 -0.82 7.54868 12.1954 -18.5793
469 157 3 0.41 7.81976 9.79681 18.096
470 157 3 0.41 7.67654 8.30835 17.6403
471 157 5 -0.82 7.85575 8.85529 18.4658
472 158 3 0.41 6.37329 10.2754 -7.24775
473 158 3 0.41 6.38414 8.74693 -7.54709
474 158 5 -0.82 6.96327 9.54015 -7.68567
475 159 3 0.41 9.69804 0.784362 -16.6787
476 159 3 0.41 9.76096 2.23136 -15.9704
477 159 5 -0.82 9.83383 1.78883 -16.8484
478 160 3 0.41 -0.668861 3.28075 16.7099
479 160 3 0.41 -1.43065 4.69322 16.5355
480 160 5 -0.82 -0.559032 4.28923 16.8463
481 161 3 0.41 5.25256 4.69969 -12.0834
482 161 3 0.41 4.91958 5.29399 -10.653
483 161 5 -0.82 4.63132 4.61433 -11.3249
484 162 3 0.41 2.29338 5.99308 0.226262
485 162 3 0.41 1.49991 5.78017 -1.10844
486 162 5 -0.82 1.56989 6.46687 -0.312891
487 163 3 0.41 8.65762 1.87654 -2.56566
488 163 3 0.41 10.1835 1.35099 -2.84809
489 163 5 -0.82 9.50134 2.07163 -3.07889
490 164 3 0.41 7.97083 -1.05223 -2.21284
491 164 3 0.41 9.04715 12.3044 -3.08406
492 164 5 -0.82 8.42926 -0.901908 -3.0946
493 165 3 0.41 2.1028 -0.640623 14.8469
494 165 3 0.41 1.22418 -0.941004 13.5563
495 165 5 -0.82 2.16484 -0.60202 13.8564
496 166 3 0.41 8.29177 2.46515 16.2189
497 166 3 0.41 7.08977 2.52862 17.3824
498 166 5 -0.82 7.37556 2.79414 16.4187
499 167 3 0.41 5.71416 0.30032 -14.8206
500 167 3 0.41 5.53137 -1.19989 -15.3067
501 167 5 -0.82 5.48331 -0.617181 -14.4558
502 168 3 0.41 0.874104 3.60497 -7.85582
503 168 3 0.41 1.27921 2.50281 -6.95594
504 168 5 -0.82 1.41283 2.74122 -7.91411
505 169 3 0.41 1.53467 9.88119 -6.19618
506 169 3 0.41 2.73864 10.715 -5.57267
507 169 5 -0.82 2.25981 10.5603 -6.44386
508 170 3 0.41 6.88127 0.480528 3.11735
509 170 3 0.41 6.43484 1.88504 2.78641
510 170 5 -0.82 6.03076 1.01215 3.03033
511 171 3 0.41 0.705778 1.92105 7.71121
512 171 3 0.41 1.8481 0.889823 7.01571
513 171 5 -0.82 1.05194 0.958064 7.65617
514 172 3 0.41 7.25188 12.1204 22.5496
515 172 3 0.41 6.52595 12.0464 21.0361
516 172 5 -0.82 6.47549 12.432 21.9804
517 173 3 0.41 12.2347 -0.511854 4.76732
518 173 3 0.41 11.2214 12.2804 4.55921
519 173 5 -0.82 11.4713 -0.94488 5.20526
520 174 3 0.41 4.81375 5.75918 19.5074
521 174 3 0.41 5.96072 6.78427 18.9776
522 174 5 -0.82 5.8099 5.79989 19.2422
523 175 3 0.41 4.48811 -0.129611 8.81299
524 175 3 0.41 4.20222 1.43601 9.0431
525 175 5 -0.82 4.92143 0.743565 9.17504
526 176 3 0.41 7.63937 12.4021 2.50044
527 176 3 0.41 8.951 11.6505 3.16124
528 176 5 -0.82 7.95701 11.88 3.28091
529 177 3 0.41 9.36474 -0.71604 12.8252
530 177 3 0.41 7.87311 -1.42442 12.9911
531 177 5 -0.82 8.5092 -0.794077 13.4342
532 178 3 0.41 11.7805 9.08274 -13.7636
533 178 3 0.41 -0.900517 8.02816 -13.8557
534 178 5 -0.82 -1.46317 8.7028 -14.3598
535 179 3 0.41 3.52033 6.00415 -21.6666
536 179 3 0.41 3.76389 4.54221 -22.2781
537 179 5 -0.82 3.01738 5.1044 -21.862
538 180 3 0.41 7.87999 6.37728 2.91326
539 180 3 0.41 7.3532 7.17852 1.59818
540 180 5 -0.82 7.45232 6.24598 1.99472
541 181 3 0.41 4.03611 8.59121 -8.216
542 181 3 0.41 3.7041 7.79566 -6.88247
543 181 5 -0.82 4.40835 7.87374 -7.62821
544 182 3 0.41 2.13463 5.08596 -13.7271
545 182 3 0.41 3.59409 5.19239 -14.4349
546 182 5 -0.82 2.81805 5.73492 -14.0403
547 183 3 0.41 4.316 7.53654 -15.9247
548 183 3 0.41 3.44408 7.44645 -14.6102
549 183 5 -0.82 3.66089 8.1059 -15.4055
550 184 3 0.41 1.40648 5.69863 15.4248
551 184 3 0.41 2.06917 4.32564 16.2697
552 184 5 -0.82 2.08063 4.90665 15.4263
553 185 3 0.41 12.0498 1.10692 -15.9147
554 185 3 0.41 12.166 2.65369 -16.656
555 185 5 -0.82 -1.41108 1.7247 -16.544
556 186 3 0.41 0.212437 -1.48459 -14.657
557 186 3 0.41 -1.29051 11.9636 -14.3338
558 186 5 -0.82 -0.306098 11.6853 -14.2592
559 187 3 0.41 10.2486 4.06346 4.61237
560 187 3 0.41 10.2975 5.00773 3.35226
561 187 5 -0.82 10.4386 4.05367 3.66699
562 188 3 0.41 -0.36441 0.504625 -22.2982
563 188 3 0.41 -0.9743 1.21999 -21.0249
564 188 5 -0.82 -1.00771 1.25229 -22.0221
565 189 3 0.41 -1.24687 4.2225 9.63334
566 189 3 0.41 -0.682058 3.33633 10.9632
567 189 5 -0.82 -1.49664 3.64419 10.447
568 190 3 0.41 6.46063 -1.45215 7.82611
569 190 3 0.41 4.93356 12.1922 8.20679
570 190 5 -0.82 5.90308 11.871 8.31179
571 191 3 0.41 4.42742 0.0316817 13.9652
572 191 3 0.41 5.2822 -1.14233 14.6046
573 191 5 -0.82 5.30218 -0.416087 13.8848
574 192 3 0.41 8.56638 -0.78674 21.8385
575 192 3 0.41 9.45673 11.9165 21.6389
576 192 5 -0.82 9.50717 -1.1206 21.9481
577 193 3 0.41 3.26152 -0.571677 12.399
578 193 3 0.41 2.69983 -0.293866 10.9897
579 193 5 -0.82 3.51588 -0.663921 11.4228
580 194 3 0.41 2.59804 12.4598 8.21706
581 194 3 0.41 3.26347 -1.38372 6.78465
582 194 5 -0.82 3.42172 -1.11297 7.7588
583 195 3 0.41 -0.99824 3.02884 14.1586
584 195 3 0.41 -0.438914 1.85495 15.1427
585 195 5 -0.82 -1.22839 2.11878 14.5305
586 196 3 0.41 11.7235 0.0499587 -22.2579
587 196 3 0.41 11.6604 -1.32351 -21.4543
588 196 5 -0.82 11.2369 -0.826204 -22.218
589 197 3 0.41 12.2959 9.9198 6.73872
590 197 3 0.41 10.6758 10.3161 6.86344
591 197 5 -0.82 11.6494 10.6337 7.06846
592 198 3 0.41 -0.649207 2.10709 -12.7991
593 198 3 0.41 12.2206 1.26659 -12.3198
594 198 5 -0.82 -0.917352 1.11944 -12.8272
595 199 3 0.41 3.13579 2.54431 -14.7036
596 199 3 0.41 1.88668 2.77331 -13.814
597 199 5 -0.82 2.55822 2.05614 -14.0236
598 200 3 0.41 1.7245 7.28969 6.74552
599 200 3 0.41 0.866472 6.75894 5.43142
600 200 5 -0.82 0.801237 6.90061 6.49586
601 201 3 0.41 5.97369 5.78538 10.9451
602 201 3 0.41 6.6846 5.81682 9.48938
603 201 5 -0.82 6.85608 5.69085 10.4838
604 202 3 0.41 8.97557 3.33936 -19.0611
605 202 3 0.41 8.63475 4.84542 -19.1665
606 202 5 -0.82 8.19352 3.97512 -18.9561
607 203 3 0.41 1.71827 6.99695 13.5876
608 203 3 0.41 0.341707 7.26366 12.5728
609 203 5 -0.82 1.04156 6.59779 12.9018
610 204 3 0.41 9.17633 6.18647 -20.4963
611 204 3 0.41 10.2647 6.31545 -19.2932
612 204 5 -0.82 9.2914 6.36758 -19.4723
613 205 3 0.41 -0.537351 -0.398786 -12.075
614 205 3 0.41 -1.01135 -1.36173 -10.8953
615 205 5 -0.82 -0.269006 -1.2277 -11.5382
616 206 3 0.41 11.0735 1.21308 6.64403
617 206 3 0.41 9.73481 1.74633 7.45692
618 206 5 -0.82 10.1776 0.937266 6.98224
619 207 3 0.41 9.06896 5.9266 7.49683
620 207 3 0.41 8.70255 4.73384 6.53449
621 207 5 -0.82 8.24079 5.48066 7.07163
622 208 3 0.41 6.35575 4.22967 8.01167
623 208 3 0.41 4.73282 4.28048 8.38619
624 208 5 -0.82 5.56446 4.85238 8.07045
625 209 3 0.41 11.6408 6.38214 -9.60741
626 209 3 0.41 12.2817 5.23126 -10.2036
627 209 5 -0.82 11.6621 5.93319 -10.5402
628 210 3 0.41 8.32958 6.72293 16.7081
629 210 3 0.41 8.23172 7.75995 15.4167
630 210 5 -0.82 7.67764 7.28614 16.1353
631 211 3 0.41 4.55075 6.80548 6.26967
632 211 3 0.41 3.21854 5.96991 6.65486
633 211 5 -0.82 3.53813 6.87071 6.31807
634 212 3 0.41 11.4301 5.28507 20.2219
635 212 3 0.41 -1.2391 5.65035 19.5433
636 212 5 -0.82 11.7414 5.8316 19.4696
637 213 3 0.41 0.602696 2.85826 5.17309
638 213 3 0.41 1.42848 3.84735 6.09591
639 213 5 -0.82 0.484407 3.46672 5.98675
640 214 3 0.41 11.4878 1.48746 -0.189437
641 214 3 0.41 12.4481 2.65638 -0.514287
642 214 5 -0.82 12.016 2.18935 0.290342
643 215 3 0.41 9.18148 10.7818 -15.4647
644 215 3 0.41 7.74999 10.3438 -16.0779
645 215 5 -0.82 8.15302 10.9944 -15.3798
646 216 3 0.41 9.2511 12.154 9.06467
647 216 3 0.41 9.71132 -0.430047 9.48089
648 216 5 -0.82 10.0791 -1.25985 9.04713
649 217 3 0.41 9.37811 8.54055 -9.93621
650 217 3 0.41 9.96131 9.57408 -8.90643
651 217 5 -0.82 10.2464 8.86451 -9.55848
652 218 3 0.41 4.3159 2.70131 3.97179
653 218 3 0.41 3.92108 4.29348 3.60315
654 218 5 -0.82 4.28916 3.65834 4.31954
655 219 3 0.41 12.3682 2.40061 -6.25206
656 219 3 0.41 -0.897419 1.64888 -7.4515
657 219 5 -0.82 12.322 2.26574 -7.24829
658 220 3 0.41 9.26449 7.41564 21.3144
659 220 3 0.41 9.89004 8.06127 22.6913
660 220 5 -0.82 10.1034 7.86537 21.7476
661 221 3 0.41 10.8439 11.0945 -16.3323
662 221 3 0.41 11.3959 10.043 -15.1195
663 221 5 -0.82 10.5727 10.3395 -15.6681
664 222 3 0.41 8.33445 9.6961 -19.1165
665 222 3 0.41 6.89426 9.65261 -19.9445
666 222 5 -0.82 7.38134 9.31109 -19.1278
667 223 3 0.41 1.77255 -1.06373 -0.677553
668 223 3 0.41 0.464076 11.897 -0.351556
669 223 5 -0.82 0.974099 12.4628 -1.10812
670 224 3 0.41 8.33417 7.53439 12.3688
671 224 3 0.41 8.28938 8.16344 10.9294
672 224 5 -0.82 7.97472 8.38095 11.8888
673 225 3 0.41 2.49817 -0.611226 -4.92033
674 225 3 0.41 3.74774 -0.343506 -5.9969
675 225 5 -0.82 2.7875 -0.0815599 -5.77879
676 226 3 0.41 -1.42884 -1.28806 20.5151
677 226 3 0.41 11.5614 -1.0256 19.2918
678 226 5 -0.82 -1.45114 -1.14959 19.5365
679 227 3 0.41 -0.212449 3.05179 22.2705
680 227 3 0.41 -1.30736 3.77549 21.494
681 227 5 -0.82 -0.561624 3.97935 22.1725
682 228 3 0.41 -0.47982 5.36884 -7.7303
683 228 3 0.41 1.10578 5.68336 -7.93615
684 228 5 -0.82 0.311809 5.1572 -8.3239
685 229 3 0.41 8.08998 2.19044 -20.9652
686 229 3 0.41 8.91533 2.62332 -22.2407
687 229 5 -0.82 8.05239 2.8057 -21.7586
688 230 3 0.41 -1.29829 6.88659 2.53283
689 230 3 0.41 11.4416 7.06054 3.40572
690 230 5 -0.82 12.2281 6.39794 3.26104
691 231 3 0.41 1.47167 -1.21386 -2.7551
692 231 3 0.41 1.84889 11.8027 -3.94412
693 231 5 -0.82 1.48764 -1.25357 -3.74799
694 232 3 0.41 0.22429 8.10743 -5.05007
695 232 3 0.41 1.50188 7.56561 -5.98225
696 232 5 -0.82 0.798322 8.28648 -5.86274
697 233 3 0.41 9.42807 7.30589 -5.94825
698 233 3 0.41 8.2672 7.97118 -6.81166
699 233 5 -0.82 9.25392 8.05857 -6.61862
700 234 3 0.41 7.93611 3.89533 -0.29799
701 234 3 0.41 7.31607 5.28423 0.288711
702 234 5 -0.82 7.11989 4.46043 -0.244897
703 235 3 0.41 0.948045 0.556237 9.21268
704 235 3 0.41 0.95998 0.694966 10.8474
705 235 5 -0.82 1.40843 0.235337 10.0865
706 236 3 0.41 11.5882 6.17384 -7.02292
707 236 3 0.41 10.4951 7.3163 -7.49347
708 236 5 -0.82 11.1464 6.58335 -7.80013
709 237 3 0.41 6.79386 5.86532 13.7537
710 237 3 0.41 6.18585 6.42583 15.1588
711 237 5 -0.82 5.95224 6.2078 14.1967
712 238 3 0.41 11.1119 8.871 9.63377
713 238 3 0.41 12.209 7.68087 9.80189
714 238 5 -0.82 11.6768 8.15984 9.13163
715 239 3 0.41 3.25034 -0.0898678 1.39117
716 239 3 0.41 3.50779 -0.0899739 -0.192977
717 239 5 -0.82 2.78169 -0.154732 0.51453
718 240 3 0.41 4.87234 9.19528 -14.4519
719 240 3 0.41 6.12683 9.99264 -14.9391
720 240 5 -0.82 5.53674 9.87825 -14.1438
721 241 3 0.41 10.9994 12.3033 1.17257
722 241 3 0.41 11.5158 -1.46324 -0.361685
723 241 5 -0.82 10.8798 -1.11149 0.351103
724 242 3 0.41 1.64913 8.57001 -0.862313
725 242 3 0.41 1.86934 10.1932 -0.846838
726 242 5 -0.82 1.20267 9.44025 -1.12622
727 243 3 0.41 0.384867 9.46145 -16.3092
728 243 3 0.41 -0.00714888 10.7799 -15.6059
729 243 5 -0.82 -0.172173 10.2801 -16.443
730 244 3 0.41 1.13721 1.23803 21.5851
731 244 3 0.41 0.620906 -0.205569 21.9854
732 244 5 -0.82 0.301229 0.659115 21.5446
733 245 3 0.41 8.19852 -0.947336 -22.2331
734 245 3 0.41 9.76387 -1.36798 -22.1971
735 245 5 -0.82 8.83014 12.2662 -22.2759
736 246 3 0.41 9.67152 -0.915553 19.9925
737 246 3 0.41 9.48025 11.9381 19.1045
738 246 5 -0.82 10.0265 -1.20843 19.1288
739 247 3 0.41 4.56002 11.6038 16.6908
740 247 3 0.41 5.37155 10.5752 15.7328
741 247 5 -0.82 4.88611 11.4968 15.7416
742 248 3 0.41 3.30681 -1.41935 4.23694
743 248 3 0.41 3.00887 11.3449 5.16856
744 248 5 -0.82 3.12602 12.3304 5.21678
745 249 3 0.41 9.27596 2.45146 -14.3879
746 249 3 0.41 10.4415 3.03301 -13.3846
747 249 5 -0.82 10.0325 3.11833 -14.3246
748 250 3 0.41 7.03367 6.49059 20.2671
749 250 3 0.41 8.02351 5.90852 21.4624
750 250 5 -0.82 7.82005 6.72129 20.8744
751 251 3 0.41 11.2528 8.65449 13.6964
752 251 3 0.41 10.977 10.1456 14.3292