ITEM: TIMESTEP
70000
ITEM: NUMBER OF ATOMS
1360
ITEM: BOX BOUNDS pp pp pp
-1.5000000000000000e+00 1.2500000000000000e+01
-1.5000000000000000e+00 1.2500000000000000e+01
-2.7500000000000000e+01 2.7500000000000000e+01
ITEM: ATOMS id mol type q x y z
1 1 3 0.41 4.77275 9.91882 10.8147
2 1 3 0.41 5.52259 9.10582 9.79637
3 1 5 -0.82 4.57985 9.29629 10.0497
4 2 3 0.41 4.58097 10.5491 -16.3285
5 2 3 0.41 3.58432 11.3047 -15.3562
6 2 5 -0.82 4.52534 11.3833 -15.7047
7 3 3 0.41 8.77897 1.22163 16.4711
8 3 3 0.41 7.42811 0.619345 15.8931
9 3 5 -0.82 7.93835 1.53916 16.0102
10 4 3 0.41 3.4159 5.24777 -16.5328
11 4 3 0.41 4.0226 6.55832 -15.7887
12 4 5 -0.82 3.27525 6.25424 -16.4331
13 5 3 0.41 -0.141956 8.09209 -4.25087
14 5 3 0.41 -0.846564 8.83183 -2.91258
15 5 5 -0.82 0.0203917 8.6594 -3.41271
16 6 3 0.41 7.62696 9.84872 -16.3885
17 6 3 0.41 8.52297 8.70256 -15.7387
18 6 5 -0.82 8.54069 9.38828 -16.4839
19 7 3 0.41 0.517619 -0.0466438 -21.8846
20 7 3 0.41 -0.182986 0.823539 -20.5873
21 7 5 -0.82 0.0574544 0.824648 -21.5646
22 8 3 0.41 3.73156 9.78545 16.8557
23 8 3 0.41 5.06469 9.21345 16.0206
24 8 5 -0.82 4.33649 9.98281 16.0431
25 9 3 0.41 -0.961507 -0.967124 -14.0751
26 9 3 0.41 11.733 -1.14784 -13.2727
27 9 5 -0.82 12.4134 12.312 -13.7625
28 10 3 0.41 5.45357 3.81241 2.61739
29 10 3 0.41 5.51487 5.06193 1.73142
30 10 5 -0.82 5.21407 4.80039 2.67536
31 11 3 0.41 0.146397 2.67386 -5.50705
32 11 3 0.41 1.56717 2.6406 -6.0917
33 11 5 -0.82 0.664364 2.87157 -6.36495
34 12 3 0.41 6.12559 1.63556 -16.3228
35 12 3 0.41 5.21879 0.216927 -16.6436
36 12 5 -0.82 5.53812 0.864274 -15.9439
37 13 3 0.41 12.2882 10.1498 -1.87767
38 13 3 0.41 12.3912 10.9626 -3.31382
39 13 5 -0.82 12.4873 11.0609 -2.26592
40 14 3 0.41 0.588282 10.6342 -14.1984
41 14 3 0.41 -0.619819 9.97485 -13.243
42 14 5 -0.82 -0.0228736 9.79985 -14.1072
43 15 3 0.41 7.31818 6.54409 12.3458
44 15 3 0.41 8.19132 5.58247 11.4087
45 15 5 -0.82 7.25812 5.91093 11.5405
46 16 3 0.41 10.1342 3.55095 9.8833
47 16 3 0.41 9.66924 4.54381 8.7279
48 16 5 -0.82 9.58225 3.53009 9.01762
49 17 3 0.41 9.47783 10.2999 21.6087
50 17 3 0.41 10.6343 11.3149 21.8492
51 17 5 -0.82 10.5127 10.3388 21.6612
52 18 3 0.41 2.96327 0.0236733 -11.6168
53 18 3 0.41 2.04087 1.26202 -11.7729
54 18 5 -0.82 2.07531 0.265493 -11.9681
55 19 3 0.41 -1.3185 8.37493 7.32464
56 19 3 0.41 -0.125272 8.67025 6.23682
57 19 5 -0.82 -0.345344 8.09285 7.057
58 20 3 0.41 10.214 11.7602 -11.0848
59 20 3 0.41 11.429 -1.19266 -10.7675
60 20 5 -0.82 10.6357 -1.35305 -11.3741
61 21 3 0.41 1.45071 8.26521 21.717
62 21 3 0.41 1.13528 9.82885 22.0454
63 21 5 -0.82 1.9006 9.21601 21.7486
64 22 3 0.41 10.0585 -0.108695 -17.1158
65 22 3 0.41 11.0883 0.424963 -15.9298
66 22 5 -0.82 10.7536 -0.416826 -16.4217
67 23 3 0.41 1.22287 3.50433 -11.3519
68 23 3 0.41 2.52772 3.66299 -12.0823
69 23 5 -0.82 1.96469 2.92995 -11.702
70 24 3 0.41 9.23626 0.771412 -18.8928
71 24 3 0.41 9.70752 -0.329916 -20.0158
72 24 5 -0.82 9.75866 0.665664 -19.7491
73 25 3 0.41 5.54875 6.64792 -13.5819
74 25 3 0.41 5.51721 6.13211 -15.222
75 25 5 -0.82 5.05001 6.673 -14.4704
76 26 3 0.41 -0.82577 11.0126 -5.38945
77 26 3 0.41 11.8471 10.2678 -5.65517
78 26 5 -0.82 12.2608 10.8695 -4.94837
79 27 3 0.41 7.97702 10.1338 -12.5068
80 27 3 0.41 8.82565 10.0222 -11.0235
81 27 5 -0.82 8.14221 10.5537 -11.5813
82 28 3 0.41 5.95755 7.04144 -7.9772
83 28 3 0.41 4.79328 6.63099 -7.12772
84 28 5 -0.82 5.4533 7.38071 -7.17375
85 29 3 0.41 6.62494 7.73981 18.8838
86 29 3 0.41 6.39162 6.1975 18.4126
87 29 5 -0.82 6.92539 6.80713 19.0666
88 30 3 0.41 10.7719 8.85502 10.5579
89 30 3 0.41 9.35853 8.05458 11.1193
90 30 5 -0.82 10.211 7.97828 10.528
91 31 3 0.41 -1.22933 5.91482 -19.8076
92 31 3 0.41 11.6746 7.06017 -19.61
93 31 5 -0.82 11.8995 6.24457 -20.1287
94 32 3 0.41 10.8379 1.68889 -21.2495
95 32 3 0.41 12.2312 1.71837 -21.9443
96 32 5 -0.82 11.4059 2.28819 -21.8548
97 33 3 0.41 5.14479 -0.414775 -18.996
98 33 3 0.41 5.07139 12.4342 -17.996
99 33 5 -0.82 4.94405 -0.577144 -18.0433
100 34 3 0.41 4.33042 11.5548 6.57801
101 34 3 0.41 3.17478 10.5156 6.26378
102 34 5 -0.82 3.8631 11.1076 5.77077
103 35 3 0.41 5.95341 4.99465 17.0892
104 35 3 0.41 4.69859 4.219 17.506
105 35 5 -0.82 5.27575 4.99987 17.8254
106 36 3 0.41 4.30255 11.6529 -7.21248
107 36 3 0.41 4.36321 -0.854767 -6.44764
108 36 5 -0.82 4.28232 -1.30836 -7.32053
109 37 3 0.41 -0.534924 1.08642 20.9317
110 37 3 0.41 0.240755 0.3549 22.0768
111 37 5 -0.82 -0.630492 0.828078 21.9092
112 38 3 0.41 7.57578 2.96644 3.46694
113 38 3 0.41 9.16243 2.88679 3.59539
114 38 5 -0.82 8.37191 3.43089 3.87739
115 39 3 0.41 5.98741 5.71829 -17.6168
116 39 3 0.41 6.73349 4.70339 -16.6127
117 39 5 -0.82 6.3135 5.5716 -16.6589
118 40 3 0.41 2.29837 1.79191 -20.4984
119 40 3 0.41 3.79999 1.29956 -21.0079
120 40 5 -0.82 3.04549 1.08883 -20.3415
121 41 3 0.41 -0.407385 6.94849 -10.1517
122 41 3 0.41 0.00931823 7.71354 -8.67481
123 41 5 -0.82 0.23231 6.96845 -9.3469
124 42 3 0.41 0.105336 0.229048 5.81667
125 42 3 0.41 -0.0505952 -0.135358 7.38448
126 42 5 -0.82 -0.29558 0.608676 6.70618
127 43 3 0.41 8.99989 6.81403 15.9253
128 43 3 0.41 10.2606 6.97534 16.8299
129 43 5 -0.82 9.34158 7.45745 16.6399
130 44 3 0.41 6.21643 3.01713 -19.1271
131 44 3 0.41 5.31736 1.74288 -19.4563
132 44 5 -0.82 5.26786 2.75254 -19.2068
133 45 3 0.41 6.30145 11.8371 -5.59246
134 45 3 0.41 6.29691 10.8441 -6.93053
135 45 5 -0.82 6.86319 11.4306 -6.31957
136 46 3 0.41 3.11899 6.21074 16.8305
137 46 3 0.41 2.56434 7.30025 15.7792
138 46 5 -0.82 3.35632 6.74394 15.98
139 47 3 0.41 -0.511086 1.7121 5.31338
140 47 3 0.41 0.169969 1.60631 3.92742
141 47 5 -0.82 -0.484005 2.1906 4.4292
142 48 3 0.41 12.0848 8.42431 22.8084
143 48 3 0.41 -0.555768 7.68136 22.1556
144 48 5 -0.82 -1.21651 8.47986 22.0617
145 49 3 0.41 0.461448 6.63358 -5.75376
146 49 3 0.41 -0.932683 7.42195 -6.15184
147 49 5 -0.82 -0.479838 6.87945 -5.3776
148 50 3 0.41 8.6367 5.82467 13.7202
149 50 3 0.41 7.17224 5.84302 14.2976
150 50 5 -0.82 8.12814 5.60602 14.5553
151 51 3 0.41 1.79078 7.62942 13.7994
152 51 3 0.41 1.0196 6.60704 12.7638
153 51 5 -0.82 1.94817 6.87909 13.0565
154 52 3 0.41 7.09698 2.59713 -7.1913
155 52 3 0.41 5.82032 3.6437 -6.97355
156 52 5 -0.82 6.72218 3.50805 -7.42902
157 53 3 0.41 6.10525 -0.936544 5.28957
158 53 3 0.41 6.57328 -1.11625 6.84203
159 53 5 -0.82 5.98568 -0.598279 6.19957
160 54 3 0.41 7.96565 -1.43021 14.6754
161 54 3 0.41 7.82742 -0.660327 13.1192
162 54 5 -0.82 8.27876 -1.4259 13.6871
163 55 3 0.41 2.73401 10.8641 10.4198
164 55 3 0.41 1.28551 10.629 9.85596
165 55 5 -0.82 2.08902 11.2103 9.75124
166 56 3 0.41 11.8808 3.96685 1.90949
167 56 3 0.41 10.6158 4.66924 1.03985
168 56 5 -0.82 11.0982 4.61923 1.96097
169 57 3 0.41 1.02754 11.7272 -22.4993
170 57 3 0.41 2.38598 -1.3318 -22.4801
171 57 5 -0.82 1.35928 -1.32885 -22.577
172 58 3 0.41 -0.813181 0.0642055 -18.3243
173 58 3 0.41 11.808 0.0179438 -19.0244
174 58 5 -0.82 -1.22334 -0.0785539 -19.2659
175 59 3 0.41 2.08571 0.127065 10.6491
176 59 3 0.41 3.03936 1.07725 11.6393
177 59 5 -0.82 2.97575 0.189717 11.0787
178 60 3 0.41 11.1774 2.11394 -6.63222
179 60 3 0.41 12.1363 2.96286 -5.68379
180 60 5 -0.82 11.5569 3.0512 -6.487
181 61 3 0.41 0.566373 8.52688 14.7831
182 61 3 0.41 1.51887 9.35302 15.5194
183 61 5 -0.82 1.55931 8.56762 14.9071
184 62 3 0.41 -1.43724 2.56525 0.287969
185 62 3 0.41 -0.581344 1.70358 1.42117
186 62 5 -0.82 -1.23606 2.51504 1.30761
187 63 3 0.41 4.39121 6.07804 18.6279
188 63 3 0.41 2.81324 6.18713 19.2911
189 63 5 -0.82 3.67853 6.65107 19.1368
190 64 3 0.41 8.65505 -0.0604043 0.815073
191 64 3 0.41 10.2448 -0.27013 1.33627
192 64 5 -0.82 9.28814 -0.0676978 1.61644
193 65 3 0.41 4.43911 1.6717 -1.86812
194 65 3 0.41 4.33397 0.182542 -2.64509
195 65 5 -0.82 3.94053 1.10834 -2.55636
196 66 3 0.41 3.10565 9.33559 3.22981
197 66 3 0.41 2.48619 8.35257 2.09906
198 66 5 -0.82 2.93664 8.33105 3.05828
199 67 3 0.41 7.01124 7.6097 15.6492
200 67 3 0.41 5.4469 7.28755 15.8615
201 67 5 -0.82 6.21324 7.81322 16.2348
202 68 3 0.41 0.453001 4.24567 16.7496
203 68 3 0.41 1.89017 3.89941 17.3854
204 68 5 -0.82 1.41298 4.61427 16.804
205 69 3 0.41 11.635 8.59146 -18.6722
206 69 3 0.41 -1.42587 8.28358 -17.4249
207 69 5 -0.82 -1.43743 8.23858 -18.4183
208 70 3 0.41 6.6203 8.74814 -18.4599
209 70 3 0.41 6.73048 7.46634 -19.2101
210 70 5 -0.82 6.87485 8.44732 -19.3705
211 71 3 0.41 5.91809 7.50445 7.93143
212 71 3 0.41 6.85266 7.07687 9.17441
213 71 5 -0.82 6.1272 6.73985 8.54801
214 72 3 0.41 0.801047 0.789566 18.9921
215 72 3 0.41 2.24845 1.04462 19.6107
216 72 5 -0.82 1.78798 0.560036 18.8637
217 73 3 0.41 7.92631 -0.624531 -13.2068
218 73 3 0.41 6.58225 -0.949129 -12.3357
219 73 5 -0.82 7.4648 -0.467946 -12.3077
220 74 3 0.41 6.09581 -0.464025 -4.47904
221 74 3 0.41 4.79163 0.373747 -4.7464
222 74 5 -0.82 5.12549 -0.594389 -4.75419
223 75 3 0.41 8.9048 9.07526 -9.06051
224 75 3 0.41 8.50401 9.5444 -7.49423
225 75 5 -0.82 8.27235 9.64481 -8.50249
226 76 3 0.41 5.12912 8.59264 -16.0382
227 76 3 0.41 6.41986 7.70345 -16.6311
228 76 5 -0.82 5.92909 8.62132 -16.6985
229 77 3 0.41 8.49266 -1.36971 16.7237
230 77 3 0.41 6.87561 12.1898 16.5733
231 77 5 -0.82 7.65388 -1.30854 16.1122
232 78 3 0.41 11.538 3.61427 -10.7881
233 78 3 0.41 11.1339 2.71505 -9.62485
234 78 5 -0.82 11.6044 3.63903 -9.81812
235 79 3 0.41 -0.722324 1.11743 -10.2903
236 79 3 0.41 -0.724669 -0.242854 -11.2694
237 79 5 -0.82 -1.12947 0.711572 -11.1456
238 80 3 0.41 8.37277 2.68564 -20.9401
239 80 3 0.41 7.30582 2.5218 -22.1017
240 80 5 -0.82 8.1689 2.14685 -21.7582
241 81 3 0.41 3.80142 6.14887 -10.801
242 81 3 0.41 2.98283 5.62776 -9.63132
243 81 5 -0.82 3.5421 6.44163 -9.87191
244 82 3 0.41 9.06059 -0.278075 3.93527
245 82 3 0.41 7.65606 0.616815 4.05172
246 82 5 -0.82 8.49295 0.311483 4.57401
247 83 3 0.41 -1.27136 -0.161845 1.14631
248 83 3 0.41 11.7432 -1.40407 1.14063
249 83 5 -0.82 11.9532 -0.54891 1.70586
250 84 3 0.41 2.20383 10.3716 13.1117
251 84 3 0.41 0.834604 9.76714 12.3858
252 84 5 -0.82 1.80503 9.75037 12.3465
253 85 3 0.41 3.77361 1.43067 21.5978
254 85 3 0.41 2.58711 0.3209 21.7578
255 85 5 -0.82 2.76598 1.25333 21.4002
256 86 3 0.41 2.87611 8.75396 -14.9389
257 86 3 0.41 2.53266 9.39879 -16.313
258 86 5 -0.82 3.37175 9.0334 -15.7563
259 87 3 0.41 9.81883 12.1253 13.1646
260 87 3 0.41 11.3659 -1.24186 13.2518
261 87 5 -0.82 10.8158 12.099 12.7891
262 88 3 0.41 9.42399 7.01123 9.44958
263 88 3 0.41 9.99591 6.70872 8.00281
264 88 5 -0.82 9.36543 6.33844 8.69623
265 89 3 0.41 9.22486 1.1835 -13.6946
266 89 3 0.41 7.76803 1.7894 -13.7028
267 89 5 -0.82 8.51378 1.42485 -14.3449
268 90 3 0.41 2.92614 9.68275 -8.8003
269 90 3 0.41 3.19266 8.09768 -9.0877
270 90 5 -0.82 2.8901 8.75336 -8.41339
271 91 3 0.41 1.52565 3.25313 0.285867
272 91 3 0.41 1.05858 2.08853 -0.629631
273 91 5 -0.82 0.907168 3.0802 -0.503163
274 92 3 0.41 -1.04254 6.57529 6.83226
275 92 3 0.41 12.0142 5.45104 6.24444
276 92 5 -0.82 -1.32594 5.60098 6.94004
277 93 3 0.41 -0.424162 8.51392 17.4975
278 93 3 0.41 12.1265 8.75658 16.6789
279 93 5 -0.82 -1.02324 8.15869 16.7167
280 94 3 0.41 6.29112 6.46549 4.70347
281 94 3 0.41 5.56296 5.65806 5.81103
282 94 5 -0.82 5.38063 6.40496 5.14635
283 95 3 0.41 3.03717 3.36064 19.3189
284 95 3 0.41 3.57723 2.17129 18.4119
285 95 5 -0.82 2.95054 3.02511 18.3711
286 96 3 0.41 12.0944 1.45635 8.67047
287 96 3 0.41 11.6898 -0.00596998 9.23994
288 96 5 -0.82 11.2785 0.881281 8.90342
289 97 3 0.41 11.808 -1.1917 19.242
290 97 3 0.41 -1.30571 -0.972492 20.6681
291 97 5 -0.82 -1.3392 -1.44593 19.7733
292 98 3 0.41 2.51686 3.15064 -14.9208
293 98 3 0.41 2.72277 1.79075 -14.1218
294 98 5 -0.82 1.99404 2.42681 -14.4812
295 99 3 0.41 7.17809 0.726749 -0.61075
296 99 3 0.41 6.21495 -0.574842 -0.685323
297 99 5 -0.82 6.90296 -0.114395 -0.094375
298 100 3 0.41 0.147951 0.232125 -6.40397
299 100 3 0.41 -1.22168 0.238231 -7.42268
300 100 5 -0.82 -0.857986 0.381256 -6.48368
301 101 3 0.41 9.16229 1.51061 -3.02709
302 101 3 0.41 9.86059 2.74218 -3.70973
303 101 5 -0.82 10.0627 1.90722 -3.18241
304 102 3 0.41 1.66567 11.7995 -19.7624
305 102 3 0.41 2.61042 -1.03371 -20.2518
306 102 5 -0.82 2.63376 12.0114 -19.8849
307 103 3 0.41 9.96677 6.58637 6.11806
308 103 3 0.41 9.15549 7.90603 6.12328
309 103 5 -0.82 10.0943 7.58371 6.31878
310 104 3 0.41 9.73704 10.4395 -16.6724
311 104 3 0.41 10.4527 11.9627 -16.6607
312 104 5 -0.82 10.6343 10.9462 -16.8033
313 105 3 0.41 2.66236 2.75131 2.2454
314 105 3 0.41 3.52624 3.95721 1.68512
315 105 5 -0.82 2.84951 3.24486 1.42129
316 106 3 0.41 8.1259 10.9701 -2.94291
317 106 3 0.41 6.65057 10.6658 -3.46128
318 106 5 -0.82 7.12569 11.2326 -2.78571
319 107 3 0.41 1.57588 -1.45313 -14.5706
320 107 3 0.41 2.65575 11.6845 -13.6438
321 107 5 -0.82 2.09403 11.6831 -14.53
322 108 3 0.41 9.95408 2.31946 -12.132
323 108 3 0.41 10.9749 1.09274 -11.6372
324 108 5 -0.82 10.074 1.29367 -12.062
325 109 3 0.41 -0.968205 0.457624 -16.4271
326 109 3 0.41 0.440305 -0.149804 -16.6895
327 109 5 -0.82 -0.157586 0.574984 -17.0701
328 110 3 0.41 -0.332694 10.7942 -18.824
329 110 3 0.41 -1.02032 12.031 -19.5893
330 110 5 -0.82 -0.183541 11.3809 -19.6593
331 111 3 0.41 10.4717 9.22815 -13.5043
332 111 3 0.41 11.2025 10.6416 -13.3067
333 111 5 -0.82 10.34 10.2297 -13.7046
334 112 3 0.41 9.59169 4.06292 -14.6329
335 112 3 0.41 10.7955 4.79321 -15.3362
336 112 5 -0.82 10.4255 3.83895 -15.202
337 113 3 0.41 -1.42356 0.120661 11.5666
338 113 3 0.41 -1.04183 0.734123 12.9002
339 113 5 -0.82 12.3713 0.942426 12.1034
340 114 3 0.41 10.6985 6.58933 -16.3402
341 114 3 0.41 9.21277 6.75233 -16.0003
342 114 5 -0.82 9.77505 6.60399 -16.828
343 115 3 0.41 8.91351 8.78211 2.529
344 115 3 0.41 8.23766 10.2983 2.42966
345 115 5 -0.82 8.38786 9.49939 3.06186
346 116 3 0.41 7.44455 1.98831 13.173
347 116 3 0.41 8.54892 2.99451 12.6325
348 116 5 -0.82 7.67733 2.95865 13.1467
349 117 3 0.41 4.75799 12.2401 -22.1915
350 117 3 0.41 4.45471 -0.141614 -22.3341
351 117 5 -0.82 4.01586 -1.08123 -22.3387
352 118 3 0.41 5.74842 0.113832 -8.16923
353 118 3 0.41 6.60491 0.558054 -6.86927
354 118 5 -0.82 6.57477 0.659625 -7.8526
355 119 3 0.41 0.00732247 5.73484 -7.6885
356 119 3 0.41 -0.238819 4.25854 -6.96295
357 119 5 -0.82 -0.66957 4.99049 -7.56586
358 120 3 0.41 5.87201 8.86612 -0.802703
359 120 3 0.41 6.80795 9.90966 -1.37479
360 120 5 -0.82 6.75856 9.31808 -0.584961
361 121 3 0.41 -0.187591 5.47849 -11.042
362 121 3 0.41 -0.941406 4.26451 -10.2322
363 121 5 -0.82 -0.0208694 4.53089 -10.7081
364 122 3 0.41 0.665046 9.09781 0.647438
365 122 3 0.41 0.405139 7.50986 0.707738
366 122 5 -0.82 1.0657 8.2115 0.825227
367 123 3 0.41 0.265801 7.94479 4.55944
368 123 3 0.41 1.63138 8.43789 4.16427
369 123 5 -0.82 0.841949 8.76288 4.76268
370 124 3 0.41 0.785517 4.20398 -1.7178
371 124 3 0.41 0.98546 4.8252 -3.09598
372 124 5 -0.82 0.368675 4.92158 -2.32042
373 125 3 0.41 11.3365 8.5341 -22.2073
374 125 3 0.41 12.179 7.49007 -21.3834
375 125 5 -0.82 12.2897 8.3859 -21.7817
376 126 3 0.41 1.5674 7.05377 -22.3281
377 126 3 0.41 0.513168 7.31006 -21.2289
378 126 5 -0.82 0.740541 6.64914 -21.9448
379 127 3 0.41 -0.99622 5.38626 12.2824
380 127 3 0.41 -0.711522 6.39442 11.0252
381 127 5 -0.82 -0.373343 6.14551 11.9436
382 128 3 0.41 2.11882 7.43632 8.98739
383 128 3 0.41 1.0106 8.04812 9.8814
384 128 5 -0.82 1.83513 7.50149 9.96831
385 129 3 0.41 3.71226 1.57148 7.9097
386 129 3 0.41 4.73601 0.364495 7.8271
387 129 5 -0.82 4.68485 1.38268 7.86419
388 130 3 0.41 3.43061 9.41671 -2.4971
389 130 3 0.41 3.96543 10.279 -3.52474
390 130 5 -0.82 4.27749 9.95124 -2.68349
391 131 3 0.41 1.68944 8.73561 -12.0606
392 131 3 0.41 1.72893 8.42608 -10.3957
393 131 5 -0.82 1.66163 9.09633 -11.1251
394 132 3 0.41 8.41664 4.3927 -5.50817
395 132 3 0.41 9.99662 4.27024 -5.36006
396 132 5 -0.82 9.15084 3.87742 -5.0452
397 133 3 0.41 10.5613 8.75341 5.18387
398 133 3 0.41 9.87793 9.86428 4.17718
399 133 5 -0.82 10.7658 9.52351 4.57068
400 134 3 0.41 1.91907 4.95446 3.35433
401 134 3 0.41 2.22905 5.45401 4.91453
402 134 5 -0.82 2.47358 5.59619 3.90395
403 135 3 0.41 10.4724 2.82112 -18.0762
404 135 3 0.41 10.1032 3.31328 -16.6394
405 135 5 -0.82 9.68509 2.84014 -17.4345
406 136 3 0.41 2.56985 5.20003 13.5555
407 136 3 0.41 2.86199 4.83686 15.0548
408 136 5 -0.82 2.87415 4.41761 14.125
409 137 3 0.41 11.6864 -1.11291 6.18519
410 137 3 0.41 10.6089 -1.03628 7.25833
411 137 5 -0.82 11.4454 12.4364 7.05538
412 138 3 0.41 5.68852 11.9227 8.67363
413 138 3 0.41 4.03237 11.7528 8.90751
414 138 5 -0.82 4.8073 11.4904 8.27774
415 139 3 0.41 1.11033 5.99841 22.7157
416 139 3 0.41 1.26322 5.98998 21.1796
417 139 5 -0.82 0.854063 6.5562 21.9351
418 140 3 0.41 10.5205 -0.666537 -2.43734
419 140 3 0.41 11.538 -0.594658 -1.10554
420 140 5 -0.82 10.5739 -0.513823 -1.45208
421 141 3 0.41 6.48152 11.4262 -21.3486
422 141 3 0.41 6.24479 10.5139 -22.5825
423 141 5 -0.82 5.7708 10.9093 -21.8315
424 142 3 0.41 5.94189 5.97031 -2.45234
425 142 3 0.41 5.48502 6.79052 -1.32179
426 142 5 -0.82 5.74697 6.95609 -2.26403
427 143 3 0.41 8.77997 -1.40564 6.90519
428 143 3 0.41 8.93439 -0.167676 5.99238
429 143 5 -0.82 9.12829 -0.441922 6.9619
430 144 3 0.41 10.3182 1.06046 -8.19229
431 144 3 0.41 11.3486 0.561382 -9.22645
432 144 5 -0.82 10.7279 1.34812 -9.10347
433 145 3 0.41 6.58761 9.58979 -8.52536
434 145 3 0.41 5.13867 9.06781 -8.4114
435 145 5 -0.82 5.65702 9.93422 -8.39648
436 146 3 0.41 9.81756 -0.51506 -6.60582
437 146 3 0.41 9.0284 0.789111 -6.25184
438 146 5 -0.82 9.81498 0.464105 -6.80606
439 147 3 0.41 3.62966 7.78762 -4.35115
440 147 3 0.41 4.69501 7.07819 -3.44132
441 147 5 -0.82 4.14218 6.90689 -4.29054
442 148 3 0.41 -0.695326 9.51969 18.9689
443 148 3 0.41 -1.29899 10.6594 19.6769
444 148 5 -0.82 12.3853 9.77939 19.3203
445 149 3 0.41 5.56253 5.66425 -5.23672
446 149 3 0.41 7.06219 5.73228 -5.56519
447 149 5 -0.82 6.41154 5.13482 -5.09759
448 150 3 0.41 7.72621 -0.443108 -17.0779
449 150 3 0.41 7.98112 1.10086 -16.729
450 150 5 -0.82 8.17806 0.3743 -17.4433
451 151 3 0.41 2.24706 10.4158 8.38586
452 151 3 0.41 1.33013 10.0311 7.09432
453 151 5 -0.82 2.21671 9.87531 7.5195
454 152 3 0.41 5.34862 2.78502 4.70727
455 152 3 0.41 3.93915 3.03199 5.64952
456 152 5 -0.82 4.95612 3.17284 5.59042
457 153 3 0.41 -0.902226 9.6694 10.3332
458 153 3 0.41 -0.360389 8.97849 8.94549
459 153 5 -0.82 -0.0480636 9.47985 9.78659
460 154 3 0.41 4.68829 2.45229 -13.9567
461 154 3 0.41 5.82132 3.60873 -13.4494
462 154 5 -0.82 4.92519 3.44224 -13.8414
463 155 3 0.41 7.7015 3.06408 21.3912
464 155 3 0.41 8.66772 2.16824 22.4262
465 155 5 -0.82 7.96404 2.09196 21.6782
466 156 3 0.41 4.45352 9.70779 -18.147
467 156 3 0.41 3.84325 10.8623 -19.0643
468 156 5 -0.82 4.55162 10.6501 -18.4017
469 157 3 0.41 6.26799 1.87934 18.7778
470 157 3 0.41 6.89288 3.03174 19.603
471 157 5 -0.82 7.08396 2.55393 18.7552
472 158 3 0.41 1.66308 11.4105 -9.18235
473 158 3 0.41 3.00045 12.2834 -8.78695
474 158 5 -0.82 2.68412 11.4613 -9.30012
475 159 3 0.41 11.7973 7.28105 -15.2752
476 159 3 0.41 12.4682 5.85602 -14.9121
477 159 5 -0.82 11.5863 6.37569 -14.8797
478 160 3 0.41 10.2961 -0.0244715 15.3981
479 160 3 0.41 11.57 0.167432 14.3634
480 160 5 -0.82 10.6098 0.509784 14.561
481 161 3 0.41 4.47057 3.41054 -15.9795
482 161 3 0.41 3.38744 2.83984 -17.0307
483 161 5 -0.82 3.69122 3.70355 -16.5481
484 162 3 0.41 9.49381 10.7441 -1.67914
485 162 3 0.41 9.70211 12.1804 -0.950606
486 162 5 -0.82 9.29501 11.2562 -0.845255
487 163 3 0.41 4.02487 7.45787 0.338217
488 163 3 0.41 3.65172 8.67723 -0.71111
489 163 5 -0.82 4.41319 8.3264 -0.0961919
490 164 3 0.41 1.93052 7.52362 -7.52899
491 164 3 0.41 2.53766 6.25824 -6.70277
492 164 5 -0.82 1.84299 7.04347 -6.62677
493 165 3 0.41 1.09437 2.2881 15.105
494 165 3 0.41 1.37015 3.45056 14.1334
495 165 5 -0.82 0.664876 2.77495 14.3201
496 166 3 0.41 7.8383 3.57144 17.6098
497 166 3 0.41 8.95261 4.63697 17.8408
498 166 5 -0.82 8.4211 4.23162 17.1187
499 167 3 0.41 0.193215 3.42588 -15.5043
500 167 3 0.41 -0.604102 4.33502 -16.494
501 167 5 -0.82 -0.218773 4.29071 -15.5213
502 168 3 0.41 11.9378 6.00402 -5.74022
503 168 3 0.41 10.4028 6.3518 -5.3962
504 168 5 -0.82 10.9824 5.90162 -6.10527
505 169 3 0.41 7.43753 2.55189 -1.15406
506 169 3 0.41 6.5814 2.21592 -2.52117
507 169 5 -0.82 7.35129 1.89446 -1.90161
508 170 3 0.41 5.59068 2.26605 0.340273
509 170 3 0.41 3.92385 2.54404 0.327982
510 170 5 -0.82 4.79856 2.5801 -0.248882
511 171 3 0.41 1.46146 1.00016 8.73526
512 171 3 0.41 1.1143 2.48385 9.50449
513 171 5 -0.82 1.58888 2.01449 8.72705
514 172 3 0.41 0.581555 12.3898 22.5164
515 172 3 0.41 1.91609 -1.26874 23.1953
516 172 5 -0.82 1.42164 -1.01824 22.4132
517 173 3 0.41 7.14626 5.72625 7.32846
518 173 3 0.41 8.17484 4.80605 6.60865
519 173 5 -0.82 7.18172 4.83447 6.89901
520 174 3 0.41 3.85718 12.2322 18.6489
521 174 3 0.41 2.72854 -0.701456 19.3412
522 174 5 -0.82 3.38928 -1.48612 19.5147
523 175 3 0.41 6.14338 3.73271 12.4719
524 175 3 0.41 4.76208 3.45601 11.4949
525 175 5 -0.82 5.19064 4.09356 12.2037
526 176 3 0.41 2.17072 2.14025 4.66401
527 176 3 0.41 2.82624 0.995133 3.7728
528 176 5 -0.82 2.23221 1.84504 3.69157
529 177 3 0.41 3.81962 3.60493 9.42416
530 177 3 0.41 3.02581 2.66273 10.4584
531 177 5 -0.82 3.9535 2.91998 10.1945
532 178 3 0.41 7.9989 11.9031 -9.26319
533 178 3 0.41 9.30689 12.394 -8.45361
534 178 5 -0.82 8.68132 -1.34072 -9.20782
535 179 3 0.41 10.7181 3.95233 -22.2912
536 179 3 0.41 11.3418 5.18974 -21.3133
537 179 5 -0.82 10.6392 4.98447 -22.0922
538 180 3 0.41 2.49607 0.69765 -6.34714
539 180 3 0.41 1.6488 -0.379417 -5.48332
540 180 5 -0.82 1.67427 0.0215944 -6.38602
541 181 3 0.41 10.4777 11.7517 -4.32444
542 181 3 0.41 10.9996 -0.830119 -4.2336
543 181 5 -0.82 10.1298 -1.33723 -4.04634
544 182 3 0.41 -0.478243 11.0337 -11.378
545 182 3 0.41 -0.130497 9.48156 -11.4838
546 182 5 -0.82 -0.872044 10.1275 -11.6595
547 183 3 0.41 1.57771 7.27385 -13.5401
548 183 3 0.41 1.13593 8.7617 -13.908
549 183 5 -0.82 1.95646 8.23612 -13.5672
550 184 3 0.41 0.847518 5.27591 18.305
551 184 3 0.41 0.1935 5.00385 19.6683
552 184 5 -0.82 1.05613 5.47242 19.284
553 185 3 0.41 1.23568 5.18379 -19.0398
554 185 3 0.41 1.00168 6.74847 -18.9578
555 185 5 -0.82 0.529816 5.8244 -18.9477
556 186 3 0.41 7.63329 1.12246 -8.98009
557 186 3 0.41 8.59864 2.2872 -9.6114
558 186 5 -0.82 7.97972 1.51472 -9.83611
559 187 3 0.41 2.16295 8.11178 7.29453
560 187 3 0.41 3.73362 7.73438 7.56017
561 187 5 -0.82 2.81222 7.28785 7.42617
562 188 3 0.41 3.94453 10.3022 -21.9994
563 188 3 0.41 2.77679 10.9026 -21.0758
564 188 5 -0.82 3.13541 10.0564 -21.5238
565 189 3 0.41 0.784132 7.59235 19.0311
566 189 3 0.41 1.13038 9.03949 19.5034
567 189 5 -0.82 0.653818 8.51338 18.7936
568 190 3 0.41 0.865728 -1.0548 4.05352
569 190 3 0.41 2.22352 -0.642086 4.73356
570 190 5 -0.82 1.22177 -0.787257 4.96556
571 191 3 0.41 1.68204 1.09618 17.3383
572 191 3 0.41 2.56826 0.846231 16.085
573 191 5 -0.82 1.63213 1.17417 16.2899
574 192 3 0.41 4.17003 12.3723 20.9286
575 192 3 0.41 5.38067 -0.738603 21.4738
576 192 5 -0.82 4.80413 -1.48135 21.7029
577 193 3 0.41 1.17686 3.95333 11.1229
578 193 3 0.41 0.515966 2.83754 12.1843
579 193 5 -0.82 0.627052 3.03681 11.2047
580 194 3 0.41 5.62164 11.5235 4.05777
581 194 3 0.41 6.91945 11.891 3.05757
582 194 5 -0.82 6.37663 12.2589 3.86448
583 195 3 0.41 8.76759 10.749 7.20751
584 195 3 0.41 9.49431 10.623 8.56597
585 195 5 -0.82 8.78041 10.2244 8.03125
586 196 3 0.41 8.3977 0.333536 -22.0941
587 196 3 0.41 9.58951 -0.526437 -22.6284
588 196 5 -0.82 8.66908 -0.606533 -22.3363
589 197 3 0.41 7.25241 2.30998 5.93719
590 197 3 0.41 6.87172 0.88904 6.73195
591 197 5 -0.82 7.38488 1.80043 6.81947
592 198 3 0.41 0.183879 6.13561 -15.9902
593 198 3 0.41 1.6334 6.77504 -16.4945
594 198 5 -0.82 0.705934 7.01481 -16.1718
595 199 3 0.41 -0.747454 1.86378 -12.1554
596 199 3 0.41 0.276467 2.70739 -13.1247
597 199 5 -0.82 -0.73352 2.47952 -12.9704
598 200 3 0.41 5.34604 9.24643 6.19752
599 200 3 0.41 5.03237 9.80931 7.70159
600 200 5 -0.82 5.28317 8.95277 7.17411
601 201 3 0.41 9.02797 12.2566 9.95017
602 201 3 0.41 9.96246 11.5657 10.9952
603 201 5 -0.82 9.85934 11.6908 10.0349
604 202 3 0.41 11.8796 4.58899 -18.0624
605 202 3 0.41 -0.68429 5.40289 -18.0594
606 202 5 -0.82 12.4184 5.23588 -17.5459
607 203 3 0.41 12.3244 9.25314 12.1948
608 203 3 0.41 11.4687 10.7069 12.1233
609 203 5 -0.82 11.829 9.88545 11.5671
610 204 3 0.41 8.74473 10.1459 -20.9369
611 204 3 0.41 8.62188 11.3945 -22.2052
612 204 5 -0.82 8.45839 10.476 -21.8487
613 205 3 0.41 9.75618 4.46423 -11.4984
614 205 3 0.41 8.70405 5.64062 -11.2413
615 205 5 -0.82 8.83494 4.65 -11.091
616 206 3 0.41 5.20755 5.13044 8.69865
617 206 3 0.41 3.9198 5.48568 7.93836
618 206 5 -0.82 4.40701 4.6854 8.30025
619 207 3 0.41 0.393525 5.34957 6.2961
620 207 3 0.41 1.81814 6.15789 6.74023
621 207 5 -0.82 1.42039 5.3958 6.20756
622 208 3 0.41 12.123 8.36722 13.4716
623 208 3 0.41 -0.571705 7.64274 12.9605
624 208 5 -0.82 -0.857944 8.52567 13.3418
625 209 3 0.41 6.38747 9.33534 -13.0866
626 209 3 0.41 6.48956 10.4283 -14.1915
627 209 5 -0.82 6.9131 9.55405 -13.9113
628 210 3 0.41 7.17477 9.11836 16.9046
629 210 3 0.41 8.44281 10.021 16.5979
630 210 5 -0.82 7.66924 9.94558 17.2267
631 211 3 0.41 9.2094 -1.32547 2.59504
632 211 3 0.41 10.5796 12.1784 3.1611
633 211 5 -0.82 9.57783 12.0074 3.28226
634 212 3 0.41 12.4601 5.88159 19.3202
635 212 3 0.41 12.081 7.15043 18.4854
636 212 5 -0.82 12.2115 6.85848 19.4611
637 213 3 0.41 7.2458 11.5917 5.36768
638 213 3 0.41 8.74009 11.2053 4.99885
639 213 5 -0.82 8.12882 11.3699 5.76213
640 214 3 0.41 5.44708 7.68569 1.27742
641 214 3 0.41 6.32633 7.23354 2.60796
642 214 5 -0.82 5.48596 7.71093 2.29703
643 215 3 0.41 7.04104 10.3554 -19.2415
644 215 3 0.41 7.01417 11.3207 -17.9935
645 215 5 -0.82 7.51664 11.1772 -18.8564
646 216 3 0.41 7.83227 3.29628 9.44938
647 216 3 0.41 6.49814 3.96602 10.0304
648 216 5 -0.82 6.82548 3.24308 9.38238
649 217 3 0.41 9.28974 6.27632 -7.25809
650 217 3 0.41 7.7406 6.28391 -7.54435
651 217 5 -0.82 8.38695 6.44354 -6.77401
652 218 3 0.41 11.6386 10.04 1.19774
653 218 3 0.41 10.6092 10.961 0.327867
654 218 5 -0.82 11.3625 10.9908 0.97064
655 219 3 0.41 6.09477 7.05164 -11.5549
656 219 3 0.41 5.84936 5.43829 -11.2925
657 219 5 -0.82 5.70034 6.18187 -11.9593
658 220 3 0.41 10.3516 6.08061 21.9962
659 220 3 0.41 9.29751 7.1017 21.892
660 220 5 -0.82 10.3208 7.05158 21.8774
661 221 3 0.41 7.69207 4.58833 -13.1724
662 221 3 0.41 7.81756 5.65858 -14.4361
663 221 5 -0.82 8.04679 4.74623 -14.1041
664 222 3 0.41 0.687184 9.18813 -20.5743
665 222 3 0.41 -0.129896 8.54264 -19.3356
666 222 5 -0.82 0.808247 8.62478 -19.7121
667 223 3 0.41 7.98179 5.4788 3.55657
668 223 3 0.41 8.41062 6.99914 3.32926
669 223 5 -0.82 7.60014 6.4323 3.62014
670 224 3 0.41 3.75664 11.7224 12.6975
671 224 3 0.41 3.71571 -1.09111 11.575
672 224 5 -0.82 4.23339 12.0548 11.7989
673 225 3 0.41 9.91154 9.28202 -2.94514
674 225 3 0.41 9.12864 9.59415 -4.35085
675 225 5 -0.82 9.43629 9.97242 -3.4764
676 226 3 0.41 -0.814404 2.81353 16.4561
677 226 3 0.41 12.2005 3.63676 17.5225
678 226 5 -0.82 -1.02617 3.73321 16.8501
679 227 3 0.41 -0.361853 3.97325 20.9828
680 227 3 0.41 12.1278 4.51135 20.9671
681 227 5 -0.82 -1.06312 4.44869 20.3687
682 228 3 0.41 6.19 8.83652 -4.9213
683 228 3 0.41 6.52345 7.97408 -3.6656
684 228 5 -0.82 6.98191 8.49423 -4.41176
685 229 3 0.41 9.07201 5.18222 -22.2331
686 229 3 0.41 8.14024 5.76334 -21.0222
687 229 5 -0.82 8.13579 5.68052 -22.0288
688 230 3 0.41 5.88097 12.0065 -2.27676
689 230 3 0.41 4.54509 12.1099 -1.39645
690 230 5 -0.82 5.25043 -1.3153 -1.8585
691 231 3 0.41 8.77874 5.20146 -0.7957
692 231 3 0.41 9.3472 6.47042 -0.0151623
693 231 5 -0.82 9.23965 5.4621 0.0713137
694 232 3 0.41 8.69832 8.12759 -6.28464
695 232 3 0.41 10.2318 8.69725 -6.41545
696 232 5 -0.82 9.29814 8.96958 -6.10572
697 233 3 0.41 11.4245 12.2105 -8.78674
698 233 3 0.41 -1.12117 -1.16976 -8.95751
699 233 5 -0.82 11.9027 -0.880871 -8.77123
700 234 3 0.41 0.0193534 5.98043 -0.957276
701 234 3 0.41 -1.3975 6.65054 -0.573448
702 234 5 -0.82 -0.53632 6.26222 -0.104756
703 235 3 0.41 10.3968 5.78827 12.8186
704 235 3 0.41 10.4269 4.60262 11.7485
705 235 5 -0.82 9.81189 5.13622 12.3138
706 236 3 0.41 1.40765 12.0497 -5.24187
707 236 3 0.41 1.37583 10.4578 -5.46189
708 236 5 -0.82 0.936008 11.3115 -5.76251
709 237 3 0.41 5.04763 11.2803 17.1388
710 237 3 0.41 5.02816 -1.15666 16.8399
711 237 5 -0.82 5.31741 12.1613 17.5334
712 238 3 0.41 8.00153 10.6124 18.5664
713 238 3 0.41 9.03253 11.7278 19.0536
714 238 5 -0.82 8.18059 11.2683 19.3066
715 239 3 0.41 11.8226 2.98032 11.6726
716 239 3 0.41 12.0249 3.28885 10.1601
717 239 5 -0.82 11.46 3.57323 10.947
718 240 3 0.41 0.721785 9.15645 -17.4602
719 240 3 0.41 0.511075 10.4838 -16.5974
720 240 5 -0.82 1.22407 9.92881 -17.0117
721 241 3 0.41 10.831 7.4406 2.64644
722 241 3 0.41 10.2844 5.94527 2.74105
723 241 5 -0.82 10.1451 6.85481 3.14309
724 242 3 0.41 7.98093 4.11384 -2.83912
725 242 3 0.41 8.44546 5.67168 -2.93754
726 242 5 -0.82 8.20047 4.91619 -2.27284
727 243 3 0.41 11.2485 2.1533 -14.8932
728 243 3 0.41 12.498 1.57844 -14.0321
729 243 5 -0.82 11.8214 1.34006 -14.7924
730 244 3 0.41 10.0599 -0.747835 22.1642
731 244 3 0.41 11.3753 -0.800872 22.9346
732 244 5 -0.82 10.9785 -1.20229 22.121
733 245 3 0.41 8.35057 2.90273 -16.6806
734 245 3 0.41 7.50713 2.98754 -15.2874
735 245 5 -0.82 7.41624 2.98541 -16.2695
736 246 3 0.41 10.7743 2.51228 19.0002
737 246 3 0.41 10.2704 4.03339 18.9339
738 246 5 -0.82 10.9846 3.38699 18.5593
739 247 3 0.41 -0.970534 12.4945 14.9352
740 247 3 0.41 -0.114742 -0.485725 14.0622
741 247 5 -0.82 -0.974606 -0.54186 14.5591
742 248 3 0.41 3.52793 -0.749376 2.20187
743 248 3 0.41 3.85613 0.856453 1.92453
744 248 5 -0.82 3.35585 0.0420636 1.55536
745 249 3 0.41 3.96788 9.83736 -12.1083
746 249 3 0.41 3.98804 8.35999 -12.8339
747 249 5 -0.82 4.54401 9.03677 -12.3427
748 250 3 0.41 6.80039 7.10823 22.0138
749 250 3 0.41 7.63979 7.22811 20.5252
750 250 5 -0.82 7.73967 7.17552 21.5768
751 251 3 0.41 2.75055 12.2308 14.5356
752 251 3 0.41 3.48682 10.7812 14.8073