ITEM: TIMESTEP
75000
ITEM: NUMBER OF ATOMS
1360
ITEM: BOX BOUNDS pp pp pp
-1.5000000000000000e+00 1.2500000000000000e+01
-1.5000000000000000e+00 1.2500000000000000e+01
-2.7500000000000000e+01 2.7500000000000000e+01
ITEM: ATOMS id mol type q x y z
1 1 3 0.41 6.04629 7.53134 11.1656
2 1 3 0.41 5.44566 8.47886 10.1154
3 1 5 -0.82 5.18219 8.00899 10.9553
4 2 3 0.41 4.10999 9.59814 -14.491
5 2 3 0.41 5.4813 9.8578 -13.7172
6 2 5 -0.82 4.887 10.2297 -14.4492
7 3 3 0.41 8.34221 -0.102954 16.6688
8 3 3 0.41 7.43267 -0.669686 15.5172
9 3 5 -0.82 7.99246 0.168121 15.6919
10 4 3 0.41 5.53667 4.69393 -16.9931
11 4 3 0.41 5.76516 4.75796 -15.4942
12 4 5 -0.82 5.63282 5.38916 -16.2704
13 5 3 0.41 -0.0235913 10.6074 -4.49092
14 5 3 0.41 -0.79854 9.49767 -3.72407
15 5 5 -0.82 -0.270303 9.64105 -4.56416
16 6 3 0.41 9.66973 9.44222 -18.2267
17 6 3 0.41 8.83501 8.18067 -18.7589
18 6 5 -0.82 9.26494 9.01339 -19.0891
19 7 3 0.41 -0.610022 0.399533 -21.996
20 7 3 0.41 -1.37753 1.18941 -20.7536
21 7 5 -0.82 12.4771 0.637321 -21.5952
22 8 3 0.41 3.56048 9.17339 14.9723
23 8 3 0.41 2.63787 7.96498 15.0705
24 8 5 -0.82 3.409 8.40351 15.5614
25 9 3 0.41 0.230851 10.9475 -12.3079
26 9 3 0.41 -1.06106 11.7943 -12.4206
27 9 5 -0.82 -0.487511 11.1913 -12.9729
28 10 3 0.41 5.92027 4.4099 2.55641
29 10 3 0.41 6.32516 6.02525 2.53653
30 10 5 -0.82 5.54722 5.34465 2.59195
31 11 3 0.41 1.2194 2.07569 -7.22593
32 11 3 0.41 2.40142 2.97655 -6.57823
33 11 5 -0.82 1.48403 3.00065 -6.94148
34 12 3 0.41 6.16534 -1.04838 -17.2629
35 12 3 0.41 7.72635 -0.643275 -17.1027
36 12 5 -0.82 6.80375 -0.280642 -17.4506
37 13 3 0.41 -0.306227 -1.02574 -3.76865
38 13 3 0.41 0.248923 12.3249 -2.46703
39 13 5 -0.82 -0.585794 12.3096 -3.04834
40 14 3 0.41 0.318938 7.98739 -13.9528
41 14 3 0.41 1.34852 8.36615 -12.6989
42 14 5 -0.82 1.1454 7.68054 -13.421
43 15 3 0.41 7.35352 4.58736 12.2901
44 15 3 0.41 7.62425 3.03637 12.7614
45 15 5 -0.82 7.04242 3.60134 12.1537
46 16 3 0.41 9.5666 3.86314 9.35439
47 16 3 0.41 8.63098 4.55471 8.14375
48 16 5 -0.82 9.3083 3.84025 8.38555
49 17 3 0.41 10.3261 7.41158 21.5933
50 17 3 0.41 11.3571 7.83615 22.6307
51 17 5 -0.82 11.2423 7.1327 21.9221
52 18 3 0.41 3.6929 0.146845 -10.7989
53 18 3 0.41 4.05326 -0.864036 -12.1093
54 18 5 -0.82 3.45196 -0.680055 -11.3232
55 19 3 0.41 -0.919423 5.57615 7.90107
56 19 3 0.41 0.474344 5.56815 8.64228
57 19 5 -0.82 -0.191702 6.2091 8.23288
58 20 3 0.41 12.459 11.2335 -9.28907
59 20 3 0.41 -0.724343 12.3966 -10.0906
60 20 5 -0.82 12.3887 11.8704 -10.0572
61 21 3 0.41 4.74079 10.868 20.9606
62 21 3 0.41 3.98932 10.5848 22.4431
63 21 5 -0.82 4.87982 10.8609 21.9762
64 22 3 0.41 9.67881 -0.971482 -16.1479
65 22 3 0.41 9.74274 11.9072 -17.3309
66 22 5 -0.82 9.16471 -1.41241 -16.89
67 23 3 0.41 0.790104 2.05355 -13.5502
68 23 3 0.41 1.73493 0.781169 -13.5387
69 23 5 -0.82 1.337 1.50841 -12.9288
70 24 3 0.41 10.6716 1.05435 -19.5645
71 24 3 0.41 10.473 -0.486155 -18.9788
72 24 5 -0.82 10.0722 0.237501 -19.6229
73 25 3 0.41 4.15221 5.4464 -13.4139
74 25 3 0.41 4.32595 4.73417 -12.1279
75 25 5 -0.82 3.59857 4.82333 -12.8023
76 26 3 0.41 11.0341 10.9267 -4.37146
77 26 3 0.41 11.9393 12.1867 -3.91257
78 26 5 -0.82 11.0226 11.9424 -4.31428
79 27 3 0.41 9.78098 10.0063 -14.0736
80 27 3 0.41 9.60515 8.58251 -13.2624
81 27 5 -0.82 9.07962 9.36149 -13.6945
82 28 3 0.41 3.16362 8.37859 -5.60126
83 28 3 0.41 4.26764 7.75761 -4.66928
84 28 5 -0.82 4.13853 8.43111 -5.40987
85 29 3 0.41 5.75731 5.85237 19.8051
86 29 3 0.41 5.18495 4.4992 20.3246
87 29 5 -0.82 5.25448 5.01102 19.4497
88 30 3 0.41 8.98101 9.12214 10.5897
89 30 3 0.41 8.49214 10.696 10.7378
90 30 5 -0.82 8.29217 9.78616 10.2551
91 31 3 0.41 11.5677 6.17359 -19.0464
92 31 3 0.41 -0.929717 6.72078 -19.4262
93 31 5 -0.82 12.1829 7.00506 -18.9745
94 32 3 0.41 9.78988 0.901168 -21.3781
95 32 3 0.41 10.5494 1.68101 -22.5829
96 32 5 -0.82 9.72768 1.62832 -22.0334
97 33 3 0.41 4.76011 -0.814893 -19.6641
98 33 3 0.41 4.76627 11.6174 -19.2283
99 33 5 -0.82 5.26229 12.3101 -19.7625
100 34 3 0.41 4.38398 10.1761 5.02204
101 34 3 0.41 3.49614 10.394 6.36066
102 34 5 -0.82 4.33332 9.94251 5.97532
103 35 3 0.41 4.18063 4.25493 18.4844
104 35 3 0.41 3.20778 4.28661 17.2978
105 35 5 -0.82 3.68314 3.58706 17.9318
106 36 3 0.41 5.48076 12.4691 -7.3236
107 36 3 0.41 6.71582 -0.562358 -7.49044
108 36 5 -0.82 5.80235 -0.739646 -7.84981
109 37 3 0.41 -0.0955707 -1.47454 22.3866
110 37 3 0.41 -0.321044 -1.05267 20.8395
111 37 5 -0.82 -0.753635 12.4328 21.6386
112 38 3 0.41 6.87597 7.75633 1.96869
113 38 3 0.41 7.81622 6.87728 1.08105
114 38 5 -0.82 7.49819 6.94806 2.06542
115 39 3 0.41 8.47096 3.45729 -16.4189
116 39 3 0.41 7.43089 2.45432 -16.9442
117 39 5 -0.82 8.34012 2.43956 -16.5242
118 40 3 0.41 1.70854 -1.31274 -19.4335
119 40 3 0.41 2.74577 -1.38914 -20.635
120 40 5 -0.82 2.59609 -0.918132 -19.7419
121 41 3 0.41 0.440571 6.6903 -11.0153
122 41 3 0.41 -1.00276 6.77986 -11.6005
123 41 5 -0.82 -0.534784 6.41375 -10.8043
124 42 3 0.41 -0.325667 12.4538 7.65414
125 42 3 0.41 -1.03024 -0.417356 6.71768
126 42 5 -0.82 -0.297127 -0.58426 7.37348
127 43 3 0.41 6.05103 6.8669 16.511
128 43 3 0.41 6.97893 7.60174 15.4572
129 43 5 -0.82 6.43509 7.77761 16.2527
130 44 3 0.41 4.40557 1.62257 -20.4387
131 44 3 0.41 3.40429 0.890339 -19.5147
132 44 5 -0.82 4.27063 1.43528 -19.4409
133 45 3 0.41 7.6127 -1.14828 -5.78766
134 45 3 0.41 8.03465 11.4464 -5.89864
135 45 5 -0.82 8.00136 12.2425 -6.54083
136 46 3 0.41 1.90484 6.19257 16.8829
137 46 3 0.41 1.9074 5.16099 15.5559
138 46 5 -0.82 2.4035 5.44915 16.4249
139 47 3 0.41 -0.453035 3.88786 4.04805
140 47 3 0.41 -0.721395 5.52596 4.25903
141 47 5 -0.82 -1.1717 4.61395 4.16149
142 48 3 0.41 -0.0616917 4.32694 22.1603
143 48 3 0.41 -1.16295 4.98207 23.0443
144 48 5 -0.82 -0.877054 4.9012 22.044
145 49 3 0.41 -0.251366 6.43385 -5.90102
146 49 3 0.41 -0.867325 7.77717 -6.52195
147 49 5 -0.82 -1.0785 7.00804 -5.9457
148 50 3 0.41 7.73157 4.96193 14.5307
149 50 3 0.41 7.04174 4.74345 15.9409
150 50 5 -0.82 7.88571 4.46404 15.3788
151 51 3 0.41 1.64074 5.39092 13.2282
152 51 3 0.41 2.10778 4.64153 11.8472
153 51 5 -0.82 2.34676 5.38842 12.5382
154 52 3 0.41 5.3784 2.77965 -8.02233
155 52 3 0.41 6.47284 1.9641 -9.02919
156 52 5 -0.82 5.76808 2.70272 -9.00021
157 53 3 0.41 2.65972 11.0489 8.30932
158 53 3 0.41 3.77786 11.8248 9.28631
159 53 5 -0.82 2.84139 11.8476 8.95616
160 54 3 0.41 9.31577 1.51957 12.7617
161 54 3 0.41 9.48718 2.94327 13.3011
162 54 5 -0.82 9.08433 2.07034 13.5495
163 55 3 0.41 11.7562 9.87661 10.1054
164 55 3 0.41 -1.49224 10.1405 11.4988
165 55 5 -0.82 11.7547 10.4885 10.8959
166 56 3 0.41 10.2485 5.79363 2.74598
167 56 3 0.41 11.4601 6.61892 2.13206
168 56 5 -0.82 10.7088 6.65873 2.80784
169 57 3 0.41 -0.186172 12.2381 -21.9956
170 57 3 0.41 1.42688 -1.26539 -22.1169
171 57 5 -0.82 0.461948 -1.01523 -22.2406
172 58 3 0.41 11.367 10.5027 -19.0198
173 58 3 0.41 11.6071 12.0776 -18.7522
174 58 5 -0.82 10.9739 11.4285 -19.2415
175 59 3 0.41 0.29547 -0.218531 11.2009
176 59 3 0.41 1.7363 0.0214347 11.8217
177 59 5 -0.82 0.975368 0.516245 11.3446
178 60 3 0.41 10.5862 2.04205 -6.31059
179 60 3 0.41 10.8819 3.56314 -5.76284
180 60 5 -0.82 11.2566 2.75467 -6.29209
181 61 3 0.41 0.328574 7.23468 14.1563
182 61 3 0.41 0.703537 7.81041 15.6216
183 61 5 -0.82 1.00141 7.75582 14.693
184 62 3 0.41 12.4654 4.29745 0.823353
185 62 3 0.41 -0.702454 3.60909 2.01458
186 62 5 -0.82 -1.12804 3.44956 1.11323
187 63 3 0.41 2.46004 6.46275 20.4326
188 63 3 0.41 2.08336 5.75098 19.0298
189 63 5 -0.82 2.58407 6.56777 19.4256
190 64 3 0.41 9.08827 0.652636 0.527273
191 64 3 0.41 9.81005 2.00689 0.988721
192 64 5 -0.82 8.91338 1.56764 0.998383
193 65 3 0.41 5.15216 -1.18251 -2.30612
194 65 3 0.41 4.71655 11.762 -3.43367
195 65 5 -0.82 4.69051 -1.2082 -3.1996
196 66 3 0.41 2.40303 8.66142 4.24108
197 66 3 0.41 1.22042 7.68203 4.75098
198 66 5 -0.82 2.25172 7.69305 4.62387
199 67 3 0.41 4.87752 4.99544 16.309
200 67 3 0.41 5.54589 4.99123 17.7989
201 67 5 -0.82 5.70789 5.31462 16.8316
202 68 3 0.41 1.56841 2.55828 16.3603
203 68 3 0.41 1.16583 3.16427 17.7404
204 68 5 -0.82 0.859549 2.49507 17.0932
205 69 3 0.41 10.2572 7.29784 -15.2838
206 69 3 0.41 10.9873 6.31046 -16.3019
207 69 5 -0.82 10.5872 7.25719 -16.2019
208 70 3 0.41 7.51276 9.62296 -18.2305
209 70 3 0.41 6.07013 8.93763 -18.7969
210 70 5 -0.82 6.5402 9.72409 -18.2996
211 71 3 0.41 4.78332 6.41862 8.64277
212 71 3 0.41 5.59093 7.67929 8.10161
213 71 5 -0.82 5.25811 6.7872 7.8301
214 72 3 0.41 4.05892 12.224 19.6984
215 72 3 0.41 3.08658 -0.457711 19.5804
216 72 5 -0.82 3.16994 -1.36832 19.9824
217 73 3 0.41 9.29661 12.2687 -12.5134
218 73 3 0.41 10.3664 11.1568 -11.8782
219 73 5 -0.82 10.1069 12.1638 -11.9675
220 74 3 0.41 5.85825 -0.63624 -4.36025
221 74 3 0.41 7.1167 0.41217 -4.36149
222 74 5 -0.82 6.63606 -0.326647 -4.87371
223 75 3 0.41 9.28935 9.8753 -8.54815
224 75 3 0.41 9.44849 9.66113 -10.1323
225 75 5 -0.82 8.80976 10.0504 -9.46524
226 76 3 0.41 7.0547 6.59078 -18.6337
227 76 3 0.41 7.58214 7.29838 -17.2733
228 76 5 -0.82 7.88691 6.99061 -18.1885
229 77 3 0.41 4.93689 -1.13806 13.9374
230 77 3 0.41 5.75041 11.9237 14.9889
231 77 5 -0.82 5.63519 -1.13845 14.6793
232 78 3 0.41 11.9329 3.67813 -10.7877
233 78 3 0.41 11.9176 2.4611 -9.78003
234 78 5 -0.82 11.5689 3.4043 -9.92092
235 79 3 0.41 0.429786 -0.918977 -11.1242
236 79 3 0.41 0.586029 0.461533 -12.0128
237 79 5 -0.82 -0.042215 -0.135952 -11.5072
238 80 3 0.41 7.61302 1.4596 -22.4284
239 80 3 0.41 6.90158 1.3734 -21.0941
240 80 5 -0.82 6.75006 1.17864 -22.0712
241 81 3 0.41 4.267 7.36639 -7.92845
242 81 3 0.41 5.74573 7.36905 -8.33041
243 81 5 -0.82 4.96693 7.93255 -8.43284
244 82 3 0.41 9.28004 1.30157 2.61994
245 82 3 0.41 9.12168 0.610413 4.13256
246 82 5 -0.82 9.68576 1.22004 3.5548
247 83 3 0.41 12.4205 1.96606 0.70575
248 83 3 0.41 11.957 0.634667 -0.264139
249 83 5 -0.82 12.0381 0.977998 0.716087
250 84 3 0.41 1.95755 8.56582 12.9349
251 84 3 0.41 1.1862 8.16247 11.59
252 84 5 -0.82 2.13149 8.31955 12.0097
253 85 3 0.41 4.04624 0.652459 22.2507
254 85 3 0.41 2.4422 0.758034 22.5597
255 85 5 -0.82 3.21803 1.22291 22.1199
256 86 3 0.41 4.73393 6.70308 -17.2697
257 86 3 0.41 3.39408 7.19387 -17.9463
258 86 5 -0.82 4.2243 7.56231 -17.4648
259 87 3 0.41 7.63527 11.2855 11.8948
260 87 3 0.41 8.5243 12.4599 12.4008
261 87 5 -0.82 8.15548 12.1084 11.5364
262 88 3 0.41 8.41281 6.23126 10.4797
263 88 3 0.41 8.01255 6.72049 9.05255
264 88 5 -0.82 7.7711 6.06405 9.76299
265 89 3 0.41 8.29383 -0.507691 -13.3861
266 89 3 0.41 6.81101 -0.973311 -13.3207
267 89 5 -0.82 7.73488 -1.34656 -13.33
268 90 3 0.41 3.236 10.0253 -9.20381
269 90 3 0.41 3.23063 8.48157 -8.96004
270 90 5 -0.82 2.65802 9.31296 -8.72711
271 91 3 0.41 0.351793 4.05633 0.108076
272 91 3 0.41 1.97309 3.97897 -0.0311121
273 91 5 -0.82 1.10608 4.03238 -0.543594
274 92 3 0.41 11.5514 5.29694 6.57515
275 92 3 0.41 10.9571 4.18525 7.6501
276 92 5 -0.82 11.7957 4.66303 7.31161
277 93 3 0.41 11.7721 5.07802 16.2194
278 93 3 0.41 -1.08185 3.89868 16.5479
279 93 5 -0.82 -1.22541 4.89353 16.2653
280 94 3 0.41 6.10964 7.3138 5.08615
281 94 3 0.41 5.145 6.6913 6.17288
282 94 5 -0.82 5.24837 6.72018 5.15185
283 95 3 0.41 3.38866 1.0791 15.5793
284 95 3 0.41 3.84325 -0.539342 15.9112
285 95 5 -0.82 3.56606 0.346304 16.3494
286 96 3 0.41 10.6575 -0.269437 9.16991
287 96 3 0.41 11.1744 0.849659 10.0701
288 96 5 -0.82 10.6981 0.768805 9.20011
289 97 3 0.41 11.3151 8.69788 18.9677
290 97 3 0.41 -1.39492 9.09012 19.9841
291 97 5 -0.82 12.2454 8.48585 19.2073
292 98 3 0.41 2.10804 -1.25286 -13.7184
293 98 3 0.41 2.05864 -1.2906 -15.3308
294 98 5 -0.82 1.91525 -0.719944 -14.5027
295 99 3 0.41 7.28749 1.71283 -2.54215
296 99 3 0.41 6.66478 0.587504 -1.5016
297 99 5 -0.82 7.15001 1.49421 -1.5564
298 100 3 0.41 1.40253 0.00893596 -4.91865
299 100 3 0.41 0.212938 -0.951185 -5.59162
300 100 5 -0.82 0.391341 -0.138439 -4.98771
301 101 3 0.41 9.5965 1.05966 -4.12273
302 101 3 0.41 9.32619 -0.372886 -4.85617
303 101 5 -0.82 9.45564 0.602515 -5.00658
304 102 3 0.41 -0.677896 -1.47254 -18.2692
305 102 3 0.41 0.335295 11.1954 -18.0527
306 102 5 -0.82 -0.0481772 11.8399 -18.7217
307 103 3 0.41 10.9644 7.77841 5.95199
308 103 3 0.41 11.4814 6.57117 4.95246
309 103 5 -0.82 11.108 6.74802 5.90686
310 104 3 0.41 10.3662 10.4927 -15.9037
311 104 3 0.41 10.0295 8.96038 -16.4388
312 104 5 -0.82 9.95722 9.93953 -16.7162
313 105 3 0.41 3.33403 3.17615 1.73259
314 105 3 0.41 3.68149 4.1243 0.428177
315 105 5 -0.82 3.20466 4.10103 1.33134
316 106 3 0.41 8.13941 10.6335 -1.35266
317 106 3 0.41 6.81116 9.58745 -1.28411
318 106 5 -0.82 7.15436 10.5321 -1.09205
319 107 3 0.41 2.22652 8.1173 -14.6267
320 107 3 0.41 3.3281 7.56022 -15.726
321 107 5 -0.82 3.046 8.38224 -15.1707
322 108 3 0.41 12.1059 2.14698 -12.2277
323 108 3 0.41 -1.18801 0.718527 -12.1439
324 108 5 -0.82 12.0063 1.17782 -12.5672
325 109 3 0.41 2.1429 0.607814 -16.992
326 109 3 0.41 2.00837 1.91263 -16.1303
327 109 5 -0.82 1.57399 1.45307 -16.9404
328 110 3 0.41 12.2452 8.4209 -18.4468
329 110 3 0.41 -1.26382 9.32455 -17.1113
330 110 5 -0.82 12.4128 9.39925 -18.0724
331 111 3 0.41 10.7117 11.8589 -14.5827
332 111 3 0.41 12.0999 10.886 -14.4786
333 111 5 -0.82 11.0555 10.8775 -14.5503
334 112 3 0.41 8.12656 1.90428 -14.8519
335 112 3 0.41 7.29741 1.91491 -13.3904
336 112 5 -0.82 7.83707 1.30629 -14.0537
337 113 3 0.41 0.178209 1.67692 12.2466
338 113 3 0.41 -0.523392 3.15423 12.1641
339 113 5 -0.82 -0.289216 2.3692 12.7959
340 114 3 0.41 7.8099 5.34107 -15.7135
341 114 3 0.41 8.26359 5.69814 -17.1289
342 114 5 -0.82 8.55661 5.10492 -16.3323
343 115 3 0.41 6.82433 10.1044 3.14851
344 115 3 0.41 7.6434 11.3915 3.2821
345 115 5 -0.82 7.02819 10.8257 3.81255
346 116 3 0.41 11.4316 3.36165 13.9774
347 116 3 0.41 10.7326 4.81707 14.0717
348 116 5 -0.82 10.9595 4.08177 13.41
349 117 3 0.41 2.94361 10.8538 -22.1738
350 117 3 0.41 3.90813 12.1105 -22.3563
351 117 5 -0.82 2.95251 11.8495 -22.061
352 118 3 0.41 6.07647 -0.0114945 -9.37451
353 118 3 0.41 7.00195 -0.60288 -10.3562
354 118 5 -0.82 6.60532 0.289935 -10.1856
355 119 3 0.41 -0.402331 5.52523 -8.46284
356 119 3 0.41 0.112374 4.46473 -7.31982
357 119 5 -0.82 -0.674716 4.68517 -7.94644
358 120 3 0.41 8.64423 6.26248 -1.03448
359 120 3 0.41 7.78625 7.6807 -0.994987
360 120 5 -0.82 8.22398 6.91943 -0.414355
361 121 3 0.41 0.808715 3.81038 -11.0205
362 121 3 0.41 0.287679 3.92447 -9.61956
363 121 5 -0.82 0.924208 3.33924 -10.1373
364 122 3 0.41 0.859057 9.99202 2.54676
365 122 3 0.41 0.644639 10.2093 4.14634
366 122 5 -0.82 1.34247 10.1014 3.43188
367 123 3 0.41 -1.4041 9.91604 4.19272
368 123 3 0.41 -0.581242 9.47297 5.55119
369 123 5 -0.82 -0.743329 10.2561 4.93622
370 124 3 0.41 2.19442 6.02578 -2.57807
371 124 3 0.41 0.986423 5.59015 -1.65185
372 124 5 -0.82 1.53466 6.43387 -1.89672
373 125 3 0.41 10.4037 7.27662 -21.9948
374 125 3 0.41 9.29089 8.30986 -21.7129
375 125 5 -0.82 9.39727 7.33332 -21.9434
376 126 3 0.41 -0.938915 7.04129 -21.5407
377 126 3 0.41 11.9015 8.03657 -21.8577
378 126 5 -0.82 12.1093 7.04106 -21.8664
379 127 3 0.41 0.269628 4.13219 10.6185
380 127 3 0.41 -0.934894 5.01062 10.1876
381 127 5 -0.82 -0.518583 4.58169 11.0001
382 128 3 0.41 1.76285 7.27747 9.55149
383 128 3 0.41 2.65794 6.29011 8.66812
384 128 5 -0.82 2.70566 6.93158 9.47556
385 129 3 0.41 5.56786 0.797252 6.34871
386 129 3 0.41 5.51535 1.2919 7.98426
387 129 5 -0.82 6.03068 1.2515 7.11456
388 130 3 0.41 4.16945 6.82406 -2.17702
389 130 3 0.41 3.9811 5.94777 -3.48754
390 130 5 -0.82 4.47674 6.76089 -3.08793
391 131 3 0.41 2.74375 5.95241 -10.0313
392 131 3 0.41 2.64536 6.06876 -11.6632
393 131 5 -0.82 2.52195 6.55853 -10.8093
394 132 3 0.41 8.81594 4.43047 -6.00142
395 132 3 0.41 7.36002 4.77045 -6.23142
396 132 5 -0.82 7.96326 4.31653 -5.50739
397 133 3 0.41 10.1206 10.0583 6.77696
398 133 3 0.41 10.4946 9.65535 5.23538
399 133 5 -0.82 10.8258 9.56751 6.23963
400 134 3 0.41 3.20152 3.65952 4.20306
401 134 3 0.41 2.25446 4.54703 5.17424
402 134 5 -0.82 2.92662 4.62316 4.37295
403 135 3 0.41 10.9429 2.25734 -17.8741
404 135 3 0.41 9.88055 1.99264 -16.8709
405 135 5 -0.82 10.8611 1.68426 -17.0604
406 136 3 0.41 3.54079 3.13249 14.6536
407 136 3 0.41 2.82159 2.0304 13.6641
408 136 5 -0.82 3.13 2.1857 14.6371
409 137 3 0.41 11.066 12.4237 5.17052
410 137 3 0.41 10.655 -0.485692 6.19096
411 137 5 -0.82 11.4735 -0.98951 5.90879
412 138 3 0.41 0.944774 9.92342 9.76581
413 138 3 0.41 1.48475 11.4153 10.1272
414 138 5 -0.82 0.82533 10.7162 10.39
415 139 3 0.41 1.50342 6.4453 22.1837
416 139 3 0.41 3.09558 6.46959 22.4108
417 139 5 -0.82 2.33654 5.91706 22.045
418 140 3 0.41 9.07848 1.94354 -2.0392
419 140 3 0.41 10.6441 1.38235 -2.27917
420 140 5 -0.82 9.87647 1.90071 -2.74378
421 141 3 0.41 3.67527 9.33837 -20.4086
422 141 3 0.41 4.48377 9.05455 -21.7262
423 141 5 -0.82 3.55718 9.04023 -21.3611
424 142 3 0.41 5.18771 3.87181 -0.896418
425 142 3 0.41 3.85353 3.44741 -1.7277
426 142 5 -0.82 4.25391 4.19843 -1.15228
427 143 3 0.41 8.56962 -0.621856 7.8382
428 143 3 0.41 8.2744 -0.317643 6.29217
429 143 5 -0.82 8.95086 -0.122589 7.03021
430 144 3 0.41 11.7709 0.620542 -8.03564
431 144 3 0.41 -1.10936 0.957622 -9.01204
432 144 5 -0.82 11.9088 0.830098 -8.98562
433 145 3 0.41 7.56015 10.2263 -7.11589
434 145 3 0.41 6.01176 10.0072 -6.86579
435 145 5 -0.82 6.9081 9.4624 -6.99314
436 146 3 0.41 10.6106 -0.809435 -7.14366
437 146 3 0.41 11.2168 -0.362121 -5.77309
438 146 5 -0.82 11.4908 -0.55364 -6.71206
439 147 3 0.41 1.41238 5.38461 -4.9212
440 147 3 0.41 1.05674 4.08897 -5.79239
441 147 5 -0.82 0.693656 5.01357 -5.53932
442 148 3 0.41 12.3568 6.77795 19.2443
443 148 3 0.41 12.4565 5.71833 18.1111
444 148 5 -0.82 -1.36014 5.79163 19.0839
445 149 3 0.41 6.49527 6.95448 -5.19763
446 149 3 0.41 6.76558 8.61889 -5.55925
447 149 5 -0.82 6.87598 7.83251 -4.87859
448 150 3 0.41 6.99802 0.567197 -18.9196
449 150 3 0.41 8.35683 0.68608 -19.6209
450 150 5 -0.82 7.47185 1.14611 -19.6162
451 151 3 0.41 2.71397 8.57539 7.56268
452 151 3 0.41 1.1473 9.28465 7.5795
453 151 5 -0.82 2.111 9.31197 7.92903
454 152 3 0.41 5.35601 2.73444 4.80284
455 152 3 0.41 6.48216 2.58589 3.57642
456 152 5 -0.82 6.31902 2.52999 4.55988
457 153 3 0.41 -0.881323 7.44875 11.0642
458 153 3 0.41 -0.338555 7.64698 9.45146
459 153 5 -0.82 -0.0313243 7.60067 10.3965
460 154 3 0.41 4.9981 0.625122 -14.14
461 154 3 0.41 6.41565 0.960554 -14.9148
462 154 5 -0.82 5.38993 0.993574 -15.0081
463 155 3 0.41 9.1389 -0.967029 22.5876
464 155 3 0.41 7.90844 12.1366 23.1357
465 155 5 -0.82 8.11761 -1.1917 22.3936
466 156 3 0.41 3.88322 9.19156 -18.1612
467 156 3 0.41 2.67973 10.094 -18.4591
468 156 5 -0.82 3.62998 9.97152 -18.7369
469 157 3 0.41 5.36179 2.92936 19.4405
470 157 3 0.41 5.05295 1.34812 19.5264
471 157 5 -0.82 5.3996 2.12221 20.0252
472 158 3 0.41 3.80781 11.946 -10.4781
473 158 3 0.41 5.10312 11.1081 -10.1368
474 158 5 -0.82 4.11032 11.1075 -9.93332
475 159 3 0.41 10.9282 2.15479 -15.2323
476 159 3 0.41 11.234 2.1522 -13.6998
477 159 5 -0.82 10.7316 2.64959 -14.3803
478 160 3 0.41 10.3695 12.2346 13.8164
479 160 3 0.41 9.49079 -0.760868 14.5871
480 160 5 -0.82 9.70112 -1.04367 13.6419
481 161 3 0.41 2.70721 4.35077 -17.9275
482 161 3 0.41 2.97006 4.53325 -16.3264
483 161 5 -0.82 2.43048 4.87819 -17.0743
484 162 3 0.41 9.02781 -0.582425 -1.30317
485 162 3 0.41 10.2235 -1.08886 -0.653559
486 162 5 -0.82 9.39956 -0.553283 -0.320491
487 163 3 0.41 4.67286 6.33626 0.808256
488 163 3 0.41 5.75503 6.00348 -0.342226
489 163 5 -0.82 5.04513 6.64001 -0.0934235
490 164 3 0.41 0.439218 7.78377 -8.41374
491 164 3 0.41 1.38313 6.84463 -9.15133
492 164 5 -0.82 0.881896 6.8831 -8.30463
493 165 3 0.41 1.52779 0.289986 17.3978
494 165 3 0.41 1.17235 -0.68516 16.1784
495 165 5 -0.82 0.930883 -0.496611 17.143
496 166 3 0.41 6.52431 1.84737 18.1683
497 166 3 0.41 7.72867 2.88187 18.3023
498 166 5 -0.82 7.17932 2.38497 17.5696
499 167 3 0.41 12.489 4.1118 -17.3701
500 167 3 0.41 -0.505394 4.81732 -18.3975
501 167 5 -0.82 -0.717359 3.94551 -17.9936
502 168 3 0.41 10.0481 6.44443 -6.59086
503 168 3 0.41 11.4396 6.05606 -6.03676
504 168 5 -0.82 10.6043 5.55881 -6.44491
505 169 3 0.41 6.2974 2.11301 -4.68667
506 169 3 0.41 7.47229 2.99987 -4.55065
507 169 5 -0.82 7.18032 2.09353 -4.2111
508 170 3 0.41 4.76361 1.33708 0.702069
509 170 3 0.41 4.12562 1.46111 -0.811831
510 170 5 -0.82 3.92239 1.57237 0.168982
511 171 3 0.41 2.65624 -0.379993 8.42501
512 171 3 0.41 1.1586 0.065849 7.84855
513 171 5 -0.82 2.07128 0.435005 8.1172
514 172 3 0.41 1.27219 9.09777 22.1816
515 172 3 0.41 2.91783 8.9535 22.232
516 172 5 -0.82 2.15218 9.60046 22.2285
517 173 3 0.41 6.56544 5.82825 7.11547
518 173 3 0.41 7.77825 5.53807 5.95389
519 173 5 -0.82 7.27809 5.18718 6.77338
520 174 3 0.41 4.75851 9.76266 19.1375
521 174 3 0.41 5.65648 11.0108 18.8197
522 174 5 -0.82 5.11437 10.6428 19.5379
523 175 3 0.41 5.81855 2.61046 11.5781
524 175 3 0.41 4.67303 1.41117 11.6757
525 175 5 -0.82 4.91632 2.25654 11.1741
526 176 3 0.41 2.74878 1.44434 4.28673
527 176 3 0.41 4.27082 1.42388 3.70231
528 176 5 -0.82 3.52172 2.02261 3.97107
529 177 3 0.41 4.1966 2.29062 9.14909
530 177 3 0.41 2.81406 1.6094 8.5955
531 177 5 -0.82 3.36793 2.56105 8.66732
532 178 3 0.41 9.26208 11.8311 -9.1347
533 178 3 0.41 8.87545 -1.13269 -8.07631
534 178 5 -0.82 9.63592 -1.37974 -8.65028
535 179 3 0.41 9.03094 3.09768 -21.7423
536 179 3 0.41 8.31174 3.82304 -20.5008
537 179 5 -0.82 8.47796 3.89533 -21.4885
538 180 3 0.41 3.74237 0.816802 -5.32801
539 180 3 0.41 3.46335 -0.478379 -4.42691
540 180 5 -0.82 3.10956 0.021654 -5.25563
541 181 3 0.41 -1.14936 0.66676 -1.5427
542 181 3 0.41 12.0016 -0.617723 -1.87274
543 181 5 -0.82 11.9177 0.377155 -1.72644
544 182 3 0.41 1.57261 9.12279 -10.1472
545 182 3 0.41 -0.0944757 9.22562 -10.09
546 182 5 -0.82 0.740496 9.31587 -10.6835
547 183 3 0.41 2.04519 4.41129 -12.9555
548 183 3 0.41 0.786513 5.12505 -13.7767
549 183 5 -0.82 1.0381 4.54562 -12.9766
550 184 3 0.41 3.12342 2.11089 18.9959
551 184 3 0.41 2.89545 1.48446 20.425
552 184 5 -0.82 2.7171 1.29715 19.4482
553 185 3 0.41 1.31466 6.18897 -19.9599
554 185 3 0.41 0.385854 5.18787 -20.7595
555 185 5 -0.82 0.391704 5.7118 -19.9202
556 186 3 0.41 8.25482 0.598031 -10.8165
557 186 3 0.41 9.27833 1.79533 -10.9411
558 186 5 -0.82 9.27159 0.810855 -10.7393
559 187 3 0.41 1.92241 5.68728 6.68509
560 187 3 0.41 2.56865 6.83892 5.97384
561 187 5 -0.82 2.63209 6.34615 6.91389
562 188 3 0.41 0.0523821 11.1022 -20.146
563 188 3 0.41 -1.05966 10.2227 -20.9777
564 188 5 -0.82 -0.139489 10.704 -21.0713
565 189 3 0.41 1.21142 3.93367 20.1373
566 189 3 0.41 -0.077211 4.42379 19.3021
567 189 5 -0.82 0.916048 4.268 19.2108
568 190 3 0.41 -0.898035 -0.605066 4.26775
569 190 3 0.41 -0.524255 11.9727 4.57485
570 190 5 -0.82 -0.0522481 -1.17235 4.31454
571 191 3 0.41 1.74017 11.8167 14.3863
572 191 3 0.41 1.62401 10.3667 15.1843
573 191 5 -0.82 1.82991 10.7788 14.2465
574 192 3 0.41 2.34276 -1.20726 21.569
575 192 3 0.41 2.11357 11.8081 22.8577
576 192 5 -0.82 1.80779 -1.33241 22.4022
577 193 3 0.41 3.33272 2.5629 11.2429
578 193 3 0.41 1.81883 2.03737 10.8921
579 193 5 -0.82 2.35415 2.82592 11.2987
580 194 3 0.41 4.48782 -0.428064 4.33076
581 194 3 0.41 3.83349 -1.08889 5.68115
582 194 5 -0.82 4.58781 -0.48194 5.34665
583 195 3 0.41 8.14951 11.44 7.3878
584 195 3 0.41 9.47257 11.4036 8.24349
585 195 5 -0.82 9.04499 11.0612 7.42954
586 196 3 0.41 8.52226 -1.16318 -21.2657
587 196 3 0.41 9.60085 -1.42191 -22.3511
588 196 5 -0.82 8.63461 -1.27564 -22.2709
589 197 3 0.41 9.2818 3.11859 5.40783
590 197 3 0.41 8.03266 2.05812 5.25553
591 197 5 -0.82 8.61142 2.49862 5.9729
592 198 3 0.41 1.52484 6.33359 -16.9231
593 198 3 0.41 0.281229 6.71696 -16.0028
594 198 5 -0.82 0.863015 7.06726 -16.7923
595 199 3 0.41 0.109605 -0.0317619 -14.7888
596 199 3 0.41 -0.67293 1.17529 -15.2757
597 199 5 -0.82 -0.816862 0.215707 -14.9756
598 200 3 0.41 5.75269 -1.39462 6.619
599 200 3 0.41 5.9361 11.0132 6.73967
600 200 5 -0.82 6.37945 11.8692 7.01473
601 201 3 0.41 6.84617 12.167 8.70115
602 201 3 0.41 7.48814 -1.20315 10.1833
603 201 5 -0.82 7.32216 -1.06536 9.16166
604 202 3 0.41 10.2715 4.86213 -16.4416
605 202 3 0.41 11.4103 4.04515 -15.4714
606 202 5 -0.82 11.2583 4.73992 -16.228
607 203 3 0.41 9.29495 9.97891 13.8308
608 203 3 0.41 10.9012 10.1323 13.5746
609 203 5 -0.82 10.1082 9.57874 13.3572
610 204 3 0.41 6.19981 -0.877539 -22.4299
611 204 3 0.41 5.43815 12.4365 -21.3396
612 204 5 -0.82 5.57363 12.3076 -22.3667
613 205 3 0.41 8.51929 3.8196 -11.5176
614 205 3 0.41 7.15824 3.74826 -10.6882
615 205 5 -0.82 8.13591 3.51759 -10.6111
616 206 3 0.41 4.28764 4.50531 5.73581
617 206 3 0.41 4.03432 3.7677 7.11608
618 206 5 -0.82 4.68838 3.83287 6.35888
619 207 3 0.41 0.0189433 4.27864 5.98563
620 207 3 0.41 1.14701 4.13047 7.15528
621 207 5 -0.82 0.981149 4.4371 6.17845
622 208 3 0.41 -0.84283 5.74188 12.1833
623 208 3 0.41 12.391 6.36768 13.4372
624 208 5 -0.82 -0.705829 6.36505 13.0152
625 209 3 0.41 6.12814 8.27982 -16.4415
626 209 3 0.41 7.03331 9.24708 -15.6642
627 209 5 -0.82 6.94539 8.27404 -15.8348
628 210 3 0.41 4.84995 10.8149 16.431
629 210 3 0.41 5.71238 9.46332 16.3654
630 210 5 -0.82 5.77771 10.4711 16.1718
631 211 3 0.41 8.87653 -1.25641 1.09858
632 211 3 0.41 7.51056 -1.01453 2.03969
633 211 5 -0.82 8.31507 12.3812 1.86165
634 212 3 0.41 11.2814 2.5183 20.899
635 212 3 0.41 11.9979 2.73635 19.546
636 212 5 -0.82 11.4046 3.2717 20.1824
637 213 3 0.41 7.49564 -1.45513 4.7679
638 213 3 0.41 6.81581 -0.184569 4.05658
639 213 5 -0.82 7.55014 -0.42014 4.70829
640 214 3 0.41 3.15516 7.92015 1.67347
641 214 3 0.41 4.20884 8.94261 2.28844
642 214 5 -0.82 3.90687 7.98831 2.38663
643 215 3 0.41 5.45546 11.0667 -16.0669
644 215 3 0.41 5.68311 11.0532 -17.641
645 215 5 -0.82 5.30357 11.5961 -16.9101
646 216 3 0.41 6.86795 2.9246 9.43378
647 216 3 0.41 7.28047 4.38704 9.18511
648 216 5 -0.82 6.56832 3.72499 8.97193
649 217 3 0.41 8.10807 8.2901 -7.30328
650 217 3 0.41 8.70877 7.41495 -8.49116
651 217 5 -0.82 8.50545 7.32361 -7.50093
652 218 3 0.41 12.1154 11.0643 -1.43446
653 218 3 0.41 11.4054 11.7046 -0.107441
654 218 5 -0.82 11.3513 11.6855 -1.12847
655 219 3 0.41 6.21979 5.61354 -10.2258
656 219 3 0.41 5.83059 6.13776 -11.716
657 219 5 -0.82 5.83177 5.31242 -11.1008
658 220 3 0.41 9.16242 4.92496 22.5519
659 220 3 0.41 9.8545 3.53076 22.1677
660 220 5 -0.82 9.8854 4.53522 21.9966
661 221 3 0.41 6.02664 3.21662 -13.3518
662 221 3 0.41 6.85547 4.57384 -13.5845
663 221 5 -0.82 6.15066 3.95562 -14.0506
664 222 3 0.41 0.930061 8.2787 -18.0506
665 222 3 0.41 -0.0664881 9.30993 -18.7087
666 222 5 -0.82 0.934464 9.04353 -18.6618
667 223 3 0.41 9.29658 8.30487 2.93957
668 223 3 0.41 9.02793 8.04375 4.48197
669 223 5 -0.82 9.22957 8.81016 3.83117
670 224 3 0.41 3.49529 10.5191 13.6615
671 224 3 0.41 3.89075 9.47959 12.5505
672 224 5 -0.82 4.32595 10.018 13.245
673 225 3 0.41 10.3262 10.6004 -1.96351
674 225 3 0.41 10.1665 9.17918 -2.6932
675 225 5 -0.82 9.63737 9.97168 -2.34689
676 226 3 0.41 -0.569888 2.14938 17.5833
677 226 3 0.41 12.1515 1.27372 17.7502
678 226 5 -0.82 12.4611 2.19769 17.8755
679 227 3 0.41 -0.169541 0.866153 20.9408
680 227 3 0.41 -1.49738 1.11332 21.8666
681 227 5 -0.82 -0.506935 1.36399 21.7742
682 228 3 0.41 6.95106 7.9082 -3.19754
683 228 3 0.41 6.11918 7.60643 -2.01216
684 228 5 -0.82 6.87675 8.24735 -2.24614
685 229 3 0.41 7.60626 5.24111 -22.0438
686 229 3 0.41 8.05973 6.68995 -22.263
687 229 5 -0.82 7.19568 6.12851 -22.1659
688 230 3 0.41 4.81091 9.59341 -4.39484
689 230 3 0.41 5.31394 9.49351 -2.98827
690 230 5 -0.82 4.98634 10.223 -3.62559
691 231 3 0.41 11.4129 6.82274 -1.82884
692 231 3 0.41 10.1216 6.26081 -2.65916
693 231 5 -0.82 10.593 6.22986 -1.74398
694 232 3 0.41 10.5764 8.35588 -4.51362
695 232 3 0.41 11.8313 9.12842 -5.01534
696 232 5 -0.82 10.9356 9.30691 -4.63549
697 233 3 0.41 -1.32253 -1.49715 -6.59895
698 233 3 0.41 -0.868498 10.8916 -6.71262
699 233 5 -0.82 -0.577636 11.8028 -6.33742
700 234 3 0.41 -0.344082 6.10415 1.31527
701 234 3 0.41 -1.14428 7.03256 0.139964
702 234 5 -0.82 -1.25874 6.34466 0.886978
703 235 3 0.41 10.3577 8.3004 12.1066
704 235 3 0.41 8.97734 7.50325 12.0199
705 235 5 -0.82 9.80922 7.77895 11.4752
706 236 3 0.41 2.88948 11.2223 -3.60387
707 236 3 0.41 1.95114 10.9068 -4.86095
708 236 5 -0.82 2.03369 11.5106 -4.07759
709 237 3 0.41 3.27769 12.4167 17.4422
710 237 3 0.41 2.80442 10.9338 16.8854
711 237 5 -0.82 3.63361 11.5953 16.9636
712 238 3 0.41 6.85571 11.5779 17.1978
713 238 3 0.41 8.13206 11.742 18.132
714 238 5 -0.82 7.31972 12.2813 17.7885
715 239 3 0.41 10.6586 3.88585 11.7716
716 239 3 0.41 10.3069 2.64663 10.6959
717 239 5 -0.82 10.4108 3.65342 10.7772
718 240 3 0.41 -0.652459 9.57987 -15.184
719 240 3 0.41 12.379 8.818 -14.1776
720 240 5 -0.82 -0.905125 8.64936 -14.8766
721 241 3 0.41 11.3183 8.85579 2.21858
722 241 3 0.41 -1.15942 9.18773 2.11558
723 241 5 -0.82 12.1291 9.11164 2.825
724 242 3 0.41 7.7502 5.13942 -3.69471
725 242 3 0.41 8.98178 4.72127 -2.8016
726 242 5 -0.82 7.99942 4.90764 -2.74813
727 243 3 0.41 -1.23926 -0.495553 -16.756
728 243 3 0.41 11.415 0.13217 -17.3387
729 243 5 -0.82 12.0485 -0.703845 -17.4772
730 244 3 0.41 11.8028 9.81455 21.578
731 244 3 0.41 -0.931094 10.8724 21.3846
732 244 5 -0.82 -1.15691 9.84651 21.3673
733 245 3 0.41 5.23352 2.15835 -18.3059
734 245 3 0.41 5.60399 2.05089 -16.6977
735 245 5 -0.82 5.74359 2.66449 -17.56
736 246 3 0.41 9.1276 0.243655 18.7866
737 246 3 0.41 10.3399 -0.730577 18.3118
738 246 5 -0.82 9.76597 0.069222 18.0132
739 247 3 0.41 11.9539 -0.77741 16.4381
740 247 3 0.41 -0.634911 -0.0880892 16.263
741 247 5 -0.82 12.3907 0.0839485 16.0624
742 248 3 0.41 6.80236 12.2392 -1.03804
743 248 3 0.41 5.92394 -0.795466 -0.0198171
744 248 5 -0.82 6.11896 -0.979114 -0.999283
745 249 3 0.41 4.79711 7.68639 -14.1751
746 249 3 0.41 6.05042 6.75206 -13.7338
747 249 5 -0.82 5.07314 6.96678 -13.4921
748 250 3 0.41 7.35511 4.6162 22.1589
749 250 3 0.41 5.94516 5.20957 22.4794
750 250 5 -0.82 6.84822 5.49332 22.1115
751 251 3 0.41 0.0803813 9.9398 16.3335
752 251 3 0.41 1.04164 9.17971 17.2436