ITEM: TIMESTEP
55000
ITEM: NUMBER OF ATOMS
1360
ITEM: BOX BOUNDS pp pp pp
-1.5000000000000000e+00 1.2500000000000000e+01
-1.5000000000000000e+00 1.2500000000000000e+01
-2.7500000000000000e+01 2.7500000000000000e+01
ITEM: ATOMS id mol type q x y z
1 1 3 0.41 4.2207 9.52511 8.19828
2 1 3 0.41 2.72029 9.53176 8.95879
3 1 5 -0.82 3.68439 9.26953 9.03318
4 2 3 0.41 3.68591 11.087 -14.6928
5 2 3 0.41 5.00077 10.2556 -14.2256
6 2 5 -0.82 4.05073 10.4732 -13.976
7 3 3 0.41 9.75033 1.99184 17.5812
8 3 3 0.41 8.55714 1.32416 16.7302
9 3 5 -0.82 9.00053 2.22363 16.9238
10 4 3 0.41 3.5257 3.62212 -16.8373
11 4 3 0.41 4.55216 3.90649 -15.617
12 4 5 -0.82 4.36644 3.36684 -16.4285
13 5 3 0.41 7.34108 8.17036 -5.56742
14 5 3 0.41 8.7211 7.83722 -6.42883
15 5 5 -0.82 7.72474 7.78829 -6.48954
16 6 3 0.41 7.75399 8.63371 -18.7221
17 6 3 0.41 8.70405 7.36841 -18.6163
18 6 5 -0.82 8.00741 7.77138 -19.2313
19 7 3 0.41 10.1686 0.991874 -22.686
20 7 3 0.41 10.426 1.39054 -21.1677
21 7 5 -0.82 9.968 1.70999 -22.006
22 8 3 0.41 4.72216 8.87631 16.085
23 8 3 0.41 3.36524 9.37633 15.6974
24 8 5 -0.82 4.20053 9.14102 15.2673
25 9 3 0.41 1.88555 8.68031 -14.045
26 9 3 0.41 1.38576 10.1136 -13.7815
27 9 5 -0.82 1.3253 9.40688 -14.4921
28 10 3 0.41 6.41426 1.3278 3.76073
29 10 3 0.41 5.8642 1.71857 5.16888
30 10 5 -0.82 6.1707 2.11899 4.33084
31 11 3 0.41 3.79511 1.64603 -7.92245
32 11 3 0.41 4.37575 2.07929 -6.55283
33 11 5 -0.82 3.66668 1.45362 -6.96886
34 12 3 0.41 6.30475 11.801 -15.8826
35 12 3 0.41 5.03132 11.9396 -16.7378
36 12 5 -0.82 5.97434 11.6792 -16.8505
37 13 3 0.41 -0.16142 5.53746 -0.922833
38 13 3 0.41 1.36995 5.95796 -1.57081
39 13 5 -0.82 0.557737 6.2637 -1.01486
40 14 3 0.41 10.8149 4.53479 -13.4038
41 14 3 0.41 10.1318 4.18834 -11.8789
42 14 5 -0.82 10.4005 4.91422 -12.5478
43 15 3 0.41 11.0167 0.0947639 11.3987
44 15 3 0.41 11.5453 1.71852 11.47
45 15 5 -0.82 11.4557 0.880701 10.8956
46 16 3 0.41 10.9417 0.506671 9.54304
47 16 3 0.41 11.0077 0.785775 7.90538
48 16 5 -0.82 10.4691 0.367769 8.63067
49 17 3 0.41 11.4255 10.3513 22.5333
50 17 3 0.41 10.8353 11.6483 21.9325
51 17 5 -0.82 10.6864 10.6093 21.9169
52 18 3 0.41 4.72754 0.843557 -10.1291
53 18 3 0.41 5.63707 -0.303396 -9.40703
54 18 5 -0.82 5.48867 0.165268 -10.2915
55 19 3 0.41 11.9053 5.08548 5.39763
56 19 3 0.41 12.3076 6.32863 6.34496
57 19 5 -0.82 11.7855 5.47086 6.38131
58 20 3 0.41 11.6471 8.94057 -9.21789
59 20 3 0.41 -0.915537 8.26118 -9.77818
60 20 5 -0.82 -1.43345 9.09961 -9.5821
61 21 3 0.41 2.59537 11.1486 21.3869
62 21 3 0.41 2.8192 9.6405 21.0061
63 21 5 -0.82 2.15978 10.258 21.4656
64 22 3 0.41 10.7338 9.44975 -18.9171
65 22 3 0.41 11.1459 10.3301 -20.2822
66 22 5 -0.82 10.594 10.3279 -19.4244
67 23 3 0.41 6.36997 3.50787 -11.0049
68 23 3 0.41 7.38836 2.93069 -12.1742
69 23 5 -0.82 7.16956 2.90167 -11.235
70 24 3 0.41 5.40687 2.67984 -19.0327
71 24 3 0.41 6.30463 1.67809 -19.9401
72 24 5 -0.82 6.15108 1.9507 -18.955
73 25 3 0.41 4.30662 6.08409 -17.2188
74 25 3 0.41 5.33109 4.96047 -16.9465
75 25 5 -0.82 5.2259 5.97991 -16.7958
76 26 3 0.41 -1.15598 8.06157 -4.58283
77 26 3 0.41 0.122877 7.70604 -3.61499
78 26 5 -0.82 -0.751431 7.32369 -3.9454
79 27 3 0.41 6.47127 9.80661 -11.6895
80 27 3 0.41 5.37176 10.5913 -10.7007
81 27 5 -0.82 5.87146 10.6477 -11.5673
82 28 3 0.41 11.8566 6.26045 -10.1214
83 28 3 0.41 11.4849 5.12366 -8.99591
84 28 5 -0.82 11.0361 5.85652 -9.63765
85 29 3 0.41 8.03284 -1.2322 18.9001
86 29 3 0.41 7.62863 11.6338 17.9125
87 29 5 -0.82 7.52316 11.9151 18.8455
88 30 3 0.41 8.6167 6.82715 13.3138
89 30 3 0.41 9.60514 8.14016 12.9935
90 30 5 -0.82 9.58436 7.2104 13.3936
91 31 3 0.41 10.6492 5.07019 -19.3175
92 31 3 0.41 11.8353 4.70153 -20.3457
93 31 5 -0.82 11.6765 5.06595 -19.4424
94 32 3 0.41 10.7268 12.0352 -19.4239
95 32 3 0.41 9.51801 -0.927208 -19.1326
96 32 5 -0.82 10.4676 -0.953284 -19.5219
97 33 3 0.41 2.91076 2.77516 -19.2167
98 33 3 0.41 3.20493 4.33951 -19.4605
99 33 5 -0.82 3.66357 3.44278 -19.5168
100 34 3 0.41 5.09566 6.44567 5.59882
101 34 3 0.41 3.76453 7.23981 6.21959
102 34 5 -0.82 4.63794 6.82482 6.4153
103 35 3 0.41 6.93199 3.35274 15.91
104 35 3 0.41 6.69103 2.93092 17.4568
105 35 5 -0.82 6.26972 3.40296 16.6513
106 36 3 0.41 6.084 11.3732 -5.90771
107 36 3 0.41 6.32611 9.82562 -5.66635
108 36 5 -0.82 5.62356 10.471 -6.04658
109 37 3 0.41 -0.225369 -0.905518 20.8895
110 37 3 0.41 0.8603 -1.3912 21.9781
111 37 5 -0.82 -0.0570202 -0.973194 21.8591
112 38 3 0.41 8.10386 10.8565 3.90596
113 38 3 0.41 9.52793 11.424 4.20772
114 38 5 -0.82 8.62906 11.3653 4.63786
115 39 3 0.41 6.9003 0.808974 -14.5995
116 39 3 0.41 8.16297 0.491049 -15.5035
117 39 5 -0.82 7.16796 0.658193 -15.5959
118 40 3 0.41 2.95355 -0.648896 -19.0985
119 40 3 0.41 2.33014 11.842 -19.5853
120 40 5 -0.82 2.09667 -1.22452 -19.2223
121 41 3 0.41 -0.878987 3.61633 -8.15343
122 41 3 0.41 -0.248576 4.26132 -9.405
123 41 5 -0.82 -0.824968 4.50129 -8.64714
124 42 3 0.41 1.83009 -0.316397 12.4541
125 42 3 0.41 1.87484 -0.0824287 10.9515
126 42 5 -0.82 1.81844 -0.847151 11.6289
127 43 3 0.41 10.6189 10.2408 15.3716
128 43 3 0.41 10.6048 11.3244 16.5689
129 43 5 -0.82 10.0153 10.5883 16.1154
130 44 3 0.41 1.55449 0.699848 -18.7395
131 44 3 0.41 0.657336 2.00428 -18.3847
132 44 5 -0.82 1.58134 1.7216 -18.7125
133 45 3 0.41 5.89925 7.92371 -3.97054
134 45 3 0.41 7.16528 8.74423 -3.49931
135 45 5 -0.82 6.5865 8.60365 -4.30605
136 46 3 0.41 4.91968 5.70843 18.637
137 46 3 0.41 4.78002 6.92675 19.4702
138 46 5 -0.82 5.512 6.27693 19.2322
139 47 3 0.41 -0.504609 10.6022 6.15713
140 47 3 0.41 0.697391 11.6566 5.75768
141 47 5 -0.82 0.447969 10.6393 5.74659
142 48 3 0.41 -1.29763 8.63857 21.9891
143 48 3 0.41 -1.30352 7.04196 21.6362
144 48 5 -0.82 12.0479 7.81767 21.7546
145 49 3 0.41 1.97175 3.55438 -5.8293
146 49 3 0.41 0.43815 4.00201 -5.42299
147 49 5 -0.82 0.971154 3.3839 -6.06546
148 50 3 0.41 11.5937 4.66754 13.8416
149 50 3 0.41 10.4639 5.69103 13.6073
150 50 5 -0.82 10.5839 4.72323 13.8131
151 51 3 0.41 -0.281013 9.8213 15.5689
152 51 3 0.41 0.839137 10.9138 14.8096
153 51 5 -0.82 -0.0528201 10.4088 14.7525
154 52 3 0.41 7.28088 11.5546 -10.4994
155 52 3 0.41 8.2596 11.3736 -9.3033
156 52 5 -0.82 7.83573 12.092 -9.86463
157 53 3 0.41 6.50975 12.2927 4.37772
158 53 3 0.41 4.95793 11.7876 4.36357
159 53 5 -0.82 5.75078 12.015 4.97317
160 54 3 0.41 7.66414 9.9315 12.975
161 54 3 0.41 9.24315 10.351 12.9131
162 54 5 -0.82 8.489 9.85486 12.4553
163 55 3 0.41 1.9813 7.89069 5.67913
164 55 3 0.41 1.76721 9.51977 5.74418
165 55 5 -0.82 2.46899 8.80051 5.65158
166 56 3 0.41 10.55 0.305429 -0.167119
167 56 3 0.41 9.98386 1.36058 0.888236
168 56 5 -0.82 10.5945 0.552882 0.815566
169 57 3 0.41 0.568761 0.295328 -22.2016
170 57 3 0.41 -0.865894 0.586635 -21.4907
171 57 5 -0.82 -0.369978 -0.0697804 -22.128
172 58 3 0.41 -0.224577 -1.36788 -18.8182
173 58 3 0.41 -0.511603 11.751 -20.1162
174 58 5 -0.82 -0.793767 11.8838 -19.1704
175 59 3 0.41 3.01669 12.4162 10.5572
176 59 3 0.41 4.26514 11.4474 10.474
177 59 5 -0.82 3.77698 12.1253 9.91714
178 60 3 0.41 0.556484 -0.36365 -7.68455
179 60 3 0.41 -0.168343 12.4186 -8.30044
180 60 5 -0.82 -0.0601132 -0.586286 -8.46601
181 61 3 0.41 3.72399 4.51677 17.2419
182 61 3 0.41 4.27622 5.66804 16.5757
183 61 5 -0.82 3.72307 5.48055 17.4069
184 62 3 0.41 12.0382 9.37739 -0.157611
185 62 3 0.41 12.3898 9.08863 1.37392
186 62 5 -0.82 -1.19077 9.45463 0.52367
187 63 3 0.41 9.0641 5.20316 19.062
188 63 3 0.41 8.69024 3.75377 18.7327
189 63 5 -0.82 9.54459 4.31107 18.9539
190 64 3 0.41 1.01752 7.61951 -0.172146
191 64 3 0.41 0.390141 8.87056 0.511848
192 64 5 -0.82 1.23344 8.30538 0.522922
193 65 3 0.41 1.90063 12.032 -1.16514
194 65 3 0.41 3.00775 10.8355 -1.69299
195 65 5 -0.82 2.08555 11.0483 -1.47617
196 66 3 0.41 5.55335 6.57517 2.9428
197 66 3 0.41 4.18159 6.47112 3.4596
198 66 5 -0.82 5.10454 6.31784 3.82282
199 67 3 0.41 6.48429 8.42069 17.8235
200 67 3 0.41 6.21131 7.62299 16.3701
201 67 5 -0.82 5.96529 8.4248 16.956
202 68 3 0.41 1.04299 6.1039 19.082
203 68 3 0.41 2.55552 5.58034 18.5311
204 68 5 -0.82 1.81962 5.40961 19.2629
205 69 3 0.41 0.769124 8.76229 -22.5233
206 69 3 0.41 0.294202 10.1334 -21.8276
207 69 5 -0.82 -0.0316585 9.20286 -22.1002
208 70 3 0.41 4.05781 7.13385 -19.2398
209 70 3 0.41 5.44794 7.86896 -18.6737
210 70 5 -0.82 4.88888 7.6713 -19.5035
211 71 3 0.41 6.00014 7.40094 7.10909
212 71 3 0.41 7.49267 8.11197 6.99074
213 71 5 -0.82 6.82423 7.72173 7.63612
214 72 3 0.41 3.50807 1.95607 19.8104
215 72 3 0.41 4.14654 2.05128 18.3249
216 72 5 -0.82 4.20449 2.42286 19.2965
217 73 3 0.41 9.35679 9.67853 -14.1665
218 73 3 0.41 8.39152 9.73258 -12.9332
219 73 5 -0.82 9.01015 10.3281 -13.4496
220 74 3 0.41 8.25373 11.1089 -1.2606
221 74 3 0.41 8.91958 12.0585 -2.27396
222 74 5 -0.82 8.28506 11.2559 -2.25323
223 75 3 0.41 0.672049 7.98038 -7.55191
224 75 3 0.41 1.09923 7.4884 -6.01566
225 75 5 -0.82 0.40654 8.06774 -6.56911
226 76 3 0.41 6.6972 6.543 -16.4122
227 76 3 0.41 7.3497 6.52616 -14.8267
228 76 5 -0.82 7.49337 6.74903 -15.8219
229 77 3 0.41 11.4893 11.0053 13.6543
230 77 3 0.41 11.8827 9.35485 13.5601
231 77 5 -0.82 11.172 10.0232 13.8429
232 78 3 0.41 1.80995 0.0439759 -10.7491
233 78 3 0.41 0.654193 0.217799 -11.8189
234 78 5 -0.82 0.986603 0.570338 -10.9208
235 79 3 0.41 3.16594 -0.579891 -8.00347
236 79 3 0.41 1.99352 0.427435 -8.57303
237 79 5 -0.82 2.69977 -0.280673 -8.86169
238 80 3 0.41 8.34731 1.42427 -21.6008
239 80 3 0.41 7.00125 2.3731 -21.7142
240 80 5 -0.82 7.33532 1.46042 -21.4326
241 81 3 0.41 6.70446 7.88048 -8.20822
242 81 3 0.41 7.14175 9.38412 -8.57131
243 81 5 -0.82 6.70368 8.59341 -8.94714
244 82 3 0.41 11.7562 12.4701 3.11284
245 82 3 0.41 -0.741121 11.8027 3.16648
246 82 5 -0.82 12.2796 11.6087 3.30452
247 83 3 0.41 2.66584 8.06183 3.81715
248 83 3 0.41 2.44656 8.21287 2.17977
249 83 5 -0.82 2.85927 7.61304 2.90677
250 84 3 0.41 2.55868 9.15056 12.5734
251 84 3 0.41 3.16536 10.634 12.7
252 84 5 -0.82 2.99242 9.9014 12.0166
253 85 3 0.41 2.12675 2.64132 21.7385
254 85 3 0.41 0.952783 1.61576 22.1226
255 85 5 -0.82 1.9243 1.64679 21.8803
256 86 3 0.41 2.0387 6.4325 -19.0281
257 86 3 0.41 2.53755 5.63501 -17.722
258 86 5 -0.82 2.87705 6.12741 -18.4811
259 87 3 0.41 0.0430194 12.1542 12.1644
260 87 3 0.41 -0.553827 11.0518 13.1575
261 87 5 -0.82 -0.69627 11.4492 12.2268
262 88 3 0.41 -0.331938 3.50188 10.8426
263 88 3 0.41 12.4569 4.27447 11.4901
264 88 5 -0.82 -1.10001 3.39006 11.5215
265 89 3 0.41 12.3424 8.38688 -15.4985
266 89 3 0.41 -0.208266 9.02054 -15.2241
267 89 5 -0.82 -1.18048 9.26427 -15.3422
268 90 3 0.41 4.10464 9.79127 -8.75308
269 90 3 0.41 4.7114 11.2548 -8.54419
270 90 5 -0.82 4.43853 10.6289 -9.25927
271 91 3 0.41 4.88763 -0.307644 2.21176
272 91 3 0.41 3.42593 -0.461587 3.02715
273 91 5 -0.82 3.87452 -0.351077 2.09638
274 92 3 0.41 0.976724 -1.27177 9.30429
275 92 3 0.41 0.426939 -0.505968 7.87141
276 92 5 -0.82 0.232333 -0.842561 8.77993
277 93 3 0.41 1.9989 3.60055 14.767
278 93 3 0.41 1.80445 3.09101 16.1411
279 93 5 -0.82 1.2091 3.2918 15.3334
280 94 3 0.41 7.15908 3.85484 6.45902
281 94 3 0.41 7.73936 5.37673 6.14159
282 94 5 -0.82 6.97508 4.75336 5.96344
283 95 3 0.41 5.86543 2.78553 19.6205
284 95 3 0.41 7.26928 3.1623 20.3372
285 95 5 -0.82 6.84988 2.83016 19.5036
286 96 3 0.41 -1.20768 12.4031 9.26471
287 96 3 0.41 -1.33331 11.6156 10.6002
288 96 5 -0.82 12.3153 11.5813 9.66425
289 97 3 0.41 0.483825 10.9721 18.063
290 97 3 0.41 1.63862 10.5282 19.0905
291 97 5 -0.82 0.660474 10.4383 18.9008
292 98 3 0.41 2.39357 11.9993 -16.4021
293 98 3 0.41 3.56312 -1.07906 -15.5171
294 98 5 -0.82 3.34419 12.0741 -16.0635
295 99 3 0.41 8.84293 -1.36495 0.749578
296 99 3 0.41 10.4244 12.3719 0.814675
297 99 5 -0.82 9.56484 11.9906 0.4299
298 100 3 0.41 -0.608606 9.94816 -8.49833
299 100 3 0.41 0.813121 10.7815 -8.74382
300 100 5 -0.82 0.0564232 10.6405 -8.08681
301 101 3 0.41 -1.45641 12.4997 -6.15101
302 101 3 0.41 10.9067 12.2859 -6.35515
303 101 5 -0.82 11.8384 11.9733 -6.62426
304 102 3 0.41 3.80185 10.1436 -19.9344
305 102 3 0.41 2.6916 9.5369 -19.0767
306 102 5 -0.82 2.88361 9.72797 -20.0452
307 103 3 0.41 9.78606 3.30324 10.331
308 103 3 0.41 10.4853 3.31 8.85338
309 103 5 -0.82 9.68718 3.69419 9.34389
310 104 3 0.41 0.138474 6.72437 -16.693
311 104 3 0.41 1.53046 7.12042 -16.1853
312 104 5 -0.82 0.650552 6.82353 -15.7961
313 105 3 0.41 4.34824 9.99372 3.46496
314 105 3 0.41 4.56159 8.48014 3.06008
315 105 5 -0.82 5.06883 9.29934 3.41098
316 106 3 0.41 -1.39797 5.69102 -7.30762
317 106 3 0.41 -1.03625 6.91904 -6.30245
318 106 5 -0.82 12.2654 6.17243 -6.48994
319 107 3 0.41 1.97402 6.21772 -12.9759
320 107 3 0.41 0.899464 7.16069 -12.5707
321 107 5 -0.82 1.90768 7.09445 -12.4866
322 108 3 0.41 0.171098 11.9037 -10.6083
323 108 3 0.41 -0.174727 11.9961 -12.1024
324 108 5 -0.82 -0.629099 12.037 -11.2043
325 109 3 0.41 1.02616 0.0407606 -16.3248
326 109 3 0.41 -0.569886 -0.294624 -16.4561
327 109 5 -0.82 0.363801 -0.640008 -16.6794
328 110 3 0.41 0.896068 10.2447 -16.1302
329 110 3 0.41 0.555607 11.6638 -16.8016
330 110 5 -0.82 1.03823 10.7902 -16.9277
331 111 3 0.41 -1.32039 9.65602 -13.4552
332 111 3 0.41 11.4319 8.86613 -12.8075
333 111 5 -0.82 12.2054 9.54393 -12.6223
334 112 3 0.41 9.40651 0.624159 -17.5682
335 112 3 0.41 10.9042 1.0124 -16.9323
336 112 5 -0.82 10.1653 1.27026 -17.6481
337 113 3 0.41 1.61075 -0.569514 15.8624
338 113 3 0.41 2.01475 0.45405 17.0695
339 113 5 -0.82 1.95044 0.331536 16.0924
340 114 3 0.41 10.9979 3.45961 -15.7198
341 114 3 0.41 10.3345 3.0263 -17.1002
342 114 5 -0.82 10.443 3.81812 -16.4683
343 115 3 0.41 10.9398 8.36138 3.3547
344 115 3 0.41 11.3362 6.94271 3.44268
345 115 5 -0.82 11.4254 7.7843 3.9779
346 116 3 0.41 10.5341 1.52176 13.8846
347 116 3 0.41 11.2112 1.69941 15.3166
348 116 5 -0.82 10.469 2.03949 14.7491
349 117 3 0.41 3.91285 11.1906 -21.9242
350 117 3 0.41 4.33906 12.491 -22.2273
351 117 5 -0.82 3.46617 12.0554 -22.1859
352 118 3 0.41 8.9961 10.4283 -5.00171
353 118 3 0.41 7.97157 11.5664 -5.03686
354 118 5 -0.82 8.46693 11.0003 -5.72047
355 119 3 0.41 0.858839 2.53948 -7.593
356 119 3 0.41 1.73386 2.76347 -8.99076
357 119 5 -0.82 0.963332 2.26761 -8.57256
358 120 3 0.41 11.8365 6.73136 0.0322559
359 120 3 0.41 -1.04942 6.55714 1.17809
360 120 5 -0.82 11.939 6.51644 1.02371
361 121 3 0.41 4.88955 5.72449 -10.5723
362 121 3 0.41 5.08777 4.99899 -9.21442
363 121 5 -0.82 5.3226 4.90903 -10.1756
364 122 3 0.41 1.50426 2.35505 -0.0291417
365 122 3 0.41 3.10288 1.92386 -0.0621681
366 122 5 -0.82 2.40519 2.59889 0.254055
367 123 3 0.41 -1.36478 5.16972 9.09394
368 123 3 0.41 12.1879 4.61544 7.5846
369 123 5 -0.82 12.3375 4.3012 8.56913
370 124 3 0.41 1.93798 -0.164545 0.573478
371 124 3 0.41 2.87712 -0.381456 -0.671641
372 124 5 -0.82 2.03136 -0.717173 -0.257662
373 125 3 0.41 10.4574 6.72123 -21.5437
374 125 3 0.41 10.0866 8.15787 -21.7395
375 125 5 -0.82 10.9301 7.5782 -21.7278
376 126 3 0.41 -1.35067 7.02926 -21.9583
377 126 3 0.41 -1.24812 5.32504 -22.1624
378 126 5 -0.82 -0.693302 6.22409 -22.1197
379 127 3 0.41 0.14569 5.40439 12.9806
380 127 3 0.41 0.076459 5.77606 11.4478
381 127 5 -0.82 0.675173 5.35867 12.1345
382 128 3 0.41 6.15176 6.79071 10.6777
383 128 3 0.41 5.884 7.29385 9.17373
384 128 5 -0.82 5.87019 7.57873 10.1418
385 129 3 0.41 3.59919 11.9478 6.35037
386 129 3 0.41 3.25928 -0.727747 7.36038
387 129 5 -0.82 2.90487 12.393 6.96482
388 130 3 0.41 4.45553 6.69635 -2.62036
389 130 3 0.41 5.96813 6.32762 -2.30035
390 130 5 -0.82 5.28662 6.51399 -3.06538
391 131 3 0.41 5.6309 7.5285 -13.989
392 131 3 0.41 4.97352 7.52399 -12.4308
393 131 5 -0.82 4.78105 7.36243 -13.4106
394 132 3 0.41 11.3991 0.336792 -4.33275
395 132 3 0.41 9.87376 -0.0416451 -4.58407
396 132 5 -0.82 10.619 -0.111066 -3.89346
397 133 3 0.41 -1.47904 2.48305 6.58704
398 133 3 0.41 -1.01964 1.14273 7.18815
399 133 5 -0.82 12.1125 1.5874 6.78988
400 134 3 0.41 3.32654 3.78419 6.0818
401 134 3 0.41 3.0589 4.43021 4.70173
402 134 5 -0.82 3.68255 3.80164 5.11916
403 135 3 0.41 10.1545 8.3374 -16.2687
404 135 3 0.41 8.73914 8.02073 -15.4284
405 135 5 -0.82 9.46279 8.70034 -15.6486
406 136 3 0.41 5.67206 3.53888 14.0681
407 136 3 0.41 5.07126 2.11751 14.1581
408 136 5 -0.82 4.8379 3.06166 13.8513
409 137 3 0.41 -0.549417 7.33277 9.84499
410 137 3 0.41 12.4128 7.08961 8.53411
411 137 5 -0.82 -0.731367 6.76527 8.9977
412 138 3 0.41 4.64885 9.30502 5.85506
413 138 3 0.41 5.48066 10.5272 5.88958
414 138 5 -0.82 5.06362 9.93035 6.56496
415 139 3 0.41 1.51662 6.72582 22.8615
416 139 3 0.41 1.42142 8.21776 22.2008
417 139 5 -0.82 1.3504 7.22521 22.0158
418 140 3 0.41 0.599014 1.0861 -2.47684
419 140 3 0.41 0.746214 -0.0327025 -1.31533
420 140 5 -0.82 0.327102 0.100146 -2.20899
421 141 3 0.41 6.30562 8.31564 -22.0411
422 141 3 0.41 5.53039 9.49215 -21.1187
423 141 5 -0.82 5.58078 9.05181 -22.0411
424 142 3 0.41 7.96685 9.54275 -2.30483
425 142 3 0.41 7.74798 8.71888 -0.886761
426 142 5 -0.82 7.98152 8.58163 -1.90369
427 143 3 0.41 9.6071 9.6911 8.56367
428 143 3 0.41 9.69947 9.51674 6.95344
429 143 5 -0.82 10.0504 10.1149 7.7169
430 144 3 0.41 10.3326 11.2878 -8.86738
431 144 3 0.41 11.6923 11.6741 -8.24386
432 144 5 -0.82 11.202 11.685 -9.17109
433 145 3 0.41 9.46592 9.30906 -8.01402
434 145 3 0.41 8.98029 10.5476 -7.19875
435 145 5 -0.82 9.15081 10.2411 -8.14117
436 146 3 0.41 11.1958 -1.42474 -3.38208
437 146 3 0.41 10.646 11.1181 -2.95179
438 146 5 -0.82 11.3882 11.7502 -2.76114
439 147 3 0.41 3.27332 0.740787 -4.03909
440 147 3 0.41 4.61779 1.59386 -4.44393
441 147 5 -0.82 3.76038 1.6354 -3.8815
442 148 3 0.41 -0.937733 10.0604 19.4021
443 148 3 0.41 11.6407 10.8349 19.2298
444 148 5 -0.82 12.0721 9.90347 19.2726
445 149 3 0.41 9.17828 0.500253 -7.09133
446 149 3 0.41 8.50804 -0.608236 -6.17283
447 149 5 -0.82 9.39158 -0.128794 -6.33639
448 150 3 0.41 4.86469 11.8102 -19.4359
449 150 3 0.41 6.06795 10.767 -19.5403
450 150 5 -0.82 5.12289 10.9568 -19.8422
451 151 3 0.41 0.837053 7.39859 8.33631
452 151 3 0.41 2.29175 7.34649 8.8298
453 151 5 -0.82 1.76714 7.14161 8.03203
454 152 3 0.41 5.44052 0.335855 6.77872
455 152 3 0.41 6.38468 -0.711386 6.00104
456 152 5 -0.82 6.41379 0.217981 6.44347
457 153 3 0.41 2.37976 6.49745 11.5398
458 153 3 0.41 3.23308 6.16141 10.1232
459 153 5 -0.82 2.79441 6.91991 10.6877
460 154 3 0.41 4.78403 1.70329 -16.632
461 154 3 0.41 5.547 0.362018 -16.1758
462 154 5 -0.82 4.68813 0.671113 -16.5917
463 155 3 0.41 6.92583 1.51012 22.1322
464 155 3 0.41 7.93496 0.098123 22.381
465 155 5 -0.82 7.87466 1.11004 22.1971
466 156 3 0.41 5.16717 0.0529213 -19.5561
467 156 3 0.41 4.6911 0.197075 -18.114
468 156 5 -0.82 4.47746 -0.330458 -18.9413
469 157 3 0.41 9.55929 0.681777 19.4463
470 157 3 0.41 8.46582 0.440897 20.6575
471 157 5 -0.82 8.73511 0.190155 19.6973
472 158 3 0.41 3.95624 8.13401 -10.8142
473 158 3 0.41 5.2995 7.99586 -10.0861
474 158 5 -0.82 4.69494 7.49865 -10.7258
475 159 3 0.41 7.65564 3.41743 -15.1946
476 159 3 0.41 8.30179 2.88244 -13.7958
477 159 5 -0.82 7.67718 3.57649 -14.2051
478 160 3 0.41 -0.262969 2.07998 16.0573
479 160 3 0.41 -1.00554 1.57472 17.2996
480 160 5 -0.82 -1.1903 1.89341 16.3557
481 161 3 0.41 4.3702 3.22768 -13.0753
482 161 3 0.41 3.00838 2.67327 -12.3469
483 161 5 -0.82 3.96969 2.40711 -12.5678
484 162 3 0.41 9.48061 8.98405 -0.845166
485 162 3 0.41 9.85417 10.5089 -0.321669
486 162 5 -0.82 10.2512 9.61681 -0.722202
487 163 3 0.41 4.85467 2.86244 -2.42854
488 163 3 0.41 5.18835 3.94164 -1.27626
489 163 5 -0.82 4.49258 3.69613 -2.00887
490 164 3 0.41 4.7229 5.79531 -7.86886
491 164 3 0.41 5.49603 6.21498 -6.60205
492 164 5 -0.82 5.18864 6.56099 -7.5027
493 165 3 0.41 3.92589 1.87583 15.5524
494 165 3 0.41 4.83873 2.95804 16.4451
495 165 5 -0.82 3.86614 2.62425 16.2873
496 166 3 0.41 8.41904 6.60948 16.0664
497 166 3 0.41 8.5198 5.73631 17.4529
498 166 5 -0.82 8.4601 5.62012 16.3798
499 167 3 0.41 2.55466 1.30991 -16.4459
500 167 3 0.41 2.32747 1.13647 -14.9751
501 167 5 -0.82 1.82375 1.39092 -15.7927
502 168 3 0.41 12.2945 1.4266 -6.96265
503 168 3 0.41 11.522 2.54152 -7.68726
504 168 5 -0.82 12.3721 1.97961 -7.79005
505 169 3 0.41 -0.315664 1.28932 -5.80923
506 169 3 0.41 -1.34607 1.84422 -4.7385
507 169 5 -0.82 -1.18945 1.032 -5.35113
508 170 3 0.41 3.45864 10.6733 0.702556
509 170 3 0.41 2.19212 9.66187 0.801412
510 170 5 -0.82 2.64505 10.353 1.28777
511 171 3 0.41 1.17834 1.32015 9.61479
512 171 3 0.41 2.23397 1.9255 10.6877
513 171 5 -0.82 2.10487 1.1405 10.0348
514 172 3 0.41 2.45574 0.0313621 21.5195
515 172 3 0.41 3.78237 -0.797239 22.028
516 172 5 -0.82 2.90384 -0.893646 21.5807
517 173 3 0.41 10.8012 1.05257 5.73689
518 173 3 0.41 9.7051 0.246556 4.73206
519 173 5 -0.82 9.78847 0.93137 5.51074
520 174 3 0.41 4.19155 10.7922 18.6953
521 174 3 0.41 3.79368 11.7545 17.4747
522 174 5 -0.82 3.40411 11.282 18.2844
523 175 3 0.41 7.02534 1.14867 12.4058
524 175 3 0.41 8.53161 0.457189 12.7598
525 175 5 -0.82 8.01578 1.31831 12.5703
526 176 3 0.41 3.58559 2.05586 4.89628
527 176 3 0.41 2.6266 1.02916 4.17782
528 176 5 -0.82 3.25898 1.13203 4.97093
529 177 3 0.41 3.49293 0.971138 9.02032
530 177 3 0.41 4.05714 -0.572019 9.03457
531 177 5 -0.82 4.09047 0.326177 8.54245
532 178 3 0.41 9.35758 9.29189 -10.0977
533 178 3 0.41 9.80692 8.34451 -11.3781
534 178 5 -0.82 10.1703 9.07996 -10.7161
535 179 3 0.41 -0.936397 3.6007 -21.7315
536 179 3 0.41 11.5765 3.00494 -22.1021
537 179 5 -0.82 12.0549 3.86838 -21.8249
538 180 3 0.41 5.02599 10.6769 -2.79568
539 180 3 0.41 5.49841 12.3143 -2.82481
540 180 5 -0.82 4.75702 11.6642 -2.59149
541 181 3 0.41 -1.49687 10.2826 -6.10131
542 181 3 0.41 -0.499334 9.06589 -5.925
543 181 5 -0.82 -1.38179 9.48621 -5.48133
544 182 3 0.41 1.59205 4.55081 -11.1399
545 182 3 0.41 2.10866 6.04184 -10.7617
546 182 5 -0.82 1.48143 5.26557 -10.4163
547 183 3 0.41 2.15593 4.05218 -13.4829
548 183 3 0.41 3.47026 4.89714 -13.9159
549 183 5 -0.82 2.47321 4.85428 -14.0516
550 184 3 0.41 0.639986 7.39303 20.3975
551 184 3 0.41 0.393752 8.66998 19.4923
552 184 5 -0.82 0.0905224 7.7081 19.5792
553 185 3 0.41 -0.419174 7.44614 -18.4855
554 185 3 0.41 -1.09905 6.11887 -18.7417
555 185 5 -0.82 -0.782914 6.60945 -17.9386
556 186 3 0.41 11.5197 11.6401 -13.1256
557 186 3 0.41 9.9742 11.3167 -12.6871
558 186 5 -0.82 10.7345 11.9429 -12.4919
559 187 3 0.41 1.09391 6.17583 4.90769
560 187 3 0.41 1.61567 6.42494 6.4164
561 187 5 -0.82 1.94359 6.11645 5.45719
562 188 3 0.41 0.397165 -1.49419 -21.6708
563 188 3 0.41 1.73478 11.5825 -21.76
564 188 5 -0.82 0.775768 11.605 -21.4135
565 189 3 0.41 1.87622 5.7772 14.5823
566 189 3 0.41 0.923533 6.00178 15.9255
567 189 5 -0.82 1.27682 6.45019 15.069
568 190 3 0.41 2.05364 11.1065 7.98871
569 190 3 0.41 0.700578 10.2182 7.85595
570 190 5 -0.82 1.39867 10.5336 8.54714
571 191 3 0.41 5.93673 0.593985 15.5765
572 191 3 0.41 6.59453 -0.142217 14.2504
573 191 5 -0.82 6.00891 0.662449 14.55
574 192 3 0.41 5.75653 -0.801702 21.2734
575 192 3 0.41 6.61652 -1.32376 22.4943
576 192 5 -0.82 5.66803 -1.37566 22.1169
577 193 3 0.41 3.84855 -0.54534 13.2424
578 193 3 0.41 5.38971 -1.07953 13.1319
579 193 5 -0.82 4.4035 -1.28162 12.8883
580 194 3 0.41 11.6453 10.5388 4.40043
581 194 3 0.41 11.448 9.00055 5.02504
582 194 5 -0.82 11.4513 10.0125 5.26661
583 195 3 0.41 9.54513 5.14897 10.0077
584 195 3 0.41 8.51474 5.91897 11.0929
585 195 5 -0.82 9.34589 5.98458 10.5707
586 196 3 0.41 7.94477 11.7442 -20.6347
587 196 3 0.41 8.89838 -1.28556 -21.3502
588 196 5 -0.82 8.01685 12.2789 -21.5034
589 197 3 0.41 8.69335 12.043 6.24168
590 197 3 0.41 7.86936 12.0504 7.56245
591 197 5 -0.82 8.5733 -1.40219 7.07119
592 198 3 0.41 1.6053 2.98361 -16.795
593 198 3 0.41 1.5068 4.44625 -16.0902
594 198 5 -0.82 1.78548 3.97322 -16.9585
595 199 3 0.41 0.213889 1.32008 -14.1442
596 199 3 0.41 -0.720136 0.480368 -13.2167
597 199 5 -0.82 0.187413 0.446549 -13.6365
598 200 3 0.41 9.96803 6.75782 7.37086
599 200 3 0.41 9.77804 5.51704 6.28385
600 200 5 -0.82 9.26109 6.13661 6.90001
601 201 3 0.41 7.92112 8.32498 9.26313
602 201 3 0.41 8.34386 9.08234 10.6842
603 201 5 -0.82 8.18951 9.16313 9.71407
604 202 3 0.41 7.97576 4.3139 -19.4509
605 202 3 0.41 9.00852 2.97871 -19.2025
606 202 5 -0.82 8.77713 3.77217 -19.8296
607 203 3 0.41 1.37171 7.50154 13.6481
608 203 3 0.41 0.582821 8.87819 13.779
609 203 5 -0.82 1.19191 8.37234 13.1821
610 204 3 0.41 8.95697 10.4804 -19.2733
611 204 3 0.41 7.73307 10.9767 -18.2499
612 204 5 -0.82 7.97047 10.7228 -19.2296
613 205 3 0.41 9.45673 0.911746 -13.6078
614 205 3 0.41 9.83174 1.91925 -12.4339
615 205 5 -0.82 9.14537 1.76069 -13.1172
616 206 3 0.41 8.73068 3.15808 6.303
617 206 3 0.41 8.75674 2.79306 7.91022
618 206 5 -0.82 8.21355 2.69933 7.03089
619 207 3 0.41 4.40556 5.76602 7.90342
620 207 3 0.41 5.48852 5.05595 8.77429
621 207 5 -0.82 4.57708 5.48752 8.82757
622 208 3 0.41 3.99372 4.52724 13.7189
623 208 3 0.41 3.57189 6.11321 13.4592
624 208 5 -0.82 3.22765 5.19809 13.8116
625 209 3 0.41 10.4274 7.25885 -13.9686
626 209 3 0.41 10.3443 6.69028 -12.5632
627 209 5 -0.82 10.2116 7.54646 -13.0519
628 210 3 0.41 9.20427 8.23014 15.0097
629 210 3 0.41 9.21885 8.99739 16.4602
630 210 5 -0.82 8.71902 8.26867 15.9045
631 211 3 0.41 -0.911116 8.71964 6.51052
632 211 3 0.41 -1.0641 8.07301 4.94794
633 211 5 -0.82 -0.675323 7.93327 5.90703
634 212 3 0.41 11.7638 5.53065 19.0555
635 212 3 0.41 12.34 7.02201 19.5754
636 212 5 -0.82 11.5231 6.50471 19.2391
637 213 3 0.41 10.4977 8.11259 9.65859
638 213 3 0.41 9.92873 6.78451 9.24489
639 213 5 -0.82 10.6094 7.48752 8.89323
640 214 3 0.41 7.73825 3.49626 2.78256
641 214 3 0.41 7.00838 4.43213 1.77345
642 214 5 -0.82 7.20156 4.36994 2.77963
643 215 3 0.41 6.11751 9.99272 -17.3944
644 215 3 0.41 4.94874 8.99416 -17.6657
645 215 5 -0.82 5.95901 9.0173 -17.5249
646 216 3 0.41 7.32227 0.951988 10.1475
647 216 3 0.41 8.77692 0.572867 9.64462
648 216 5 -0.82 7.88504 0.966201 9.3453
649 217 3 0.41 9.24356 4.49468 -8.04328
650 217 3 0.41 9.82924 3.39658 -6.84086
651 217 5 -0.82 9.84387 3.70609 -7.81227
652 218 3 0.41 11.8513 5.54878 2.53534
653 218 3 0.41 -0.84617 5.62018 3.41081
654 218 5 -0.82 12.2177 5.24687 3.38939
655 219 3 0.41 9.73673 3.35401 -9.68509
656 219 3 0.41 8.7818 2.98907 -10.8418
657 219 5 -0.82 9.76638 3.13625 -10.7168
658 220 3 0.41 9.75223 7.69558 22.7926
659 220 3 0.41 8.36714 7.55456 21.8082
660 220 5 -0.82 9.2736 8.01832 21.8883
661 221 3 0.41 9.42434 -1.33086 -15.5024
662 221 3 0.41 9.21637 12.4784 -13.9393
663 221 5 -0.82 9.23804 -0.807248 -14.6093
664 222 3 0.41 2.57413 8.85775 -21.2792
665 222 3 0.41 3.68006 8.33608 -22.0761
666 222 5 -0.82 2.71189 8.36861 -22.2026
667 223 3 0.41 11.3463 3.17301 1.75428
668 223 3 0.41 10.0147 2.52034 2.20927
669 223 5 -0.82 10.9429 2.69227 2.51643
670 224 3 0.41 6.3102 10.9917 10.9079
671 224 3 0.41 5.86879 9.67498 10.1474
672 224 5 -0.82 5.74412 10.1368 11.0333
673 225 3 0.41 11.541 3.72827 -3.40247
674 225 3 0.41 10.6199 2.86313 -4.49422
675 225 5 -0.82 11.5997 3.03692 -4.15072
676 226 3 0.41 -1.42603 3.88001 20.5187
677 226 3 0.41 -0.652097 3.5739 19.1026
678 226 5 -0.82 12.4465 3.79632 19.5095
679 227 3 0.41 0.146395 4.97925 22.2868
680 227 3 0.41 -0.924429 3.89547 22.5827
681 227 5 -0.82 -0.824928 4.77386 22.1371
682 228 3 0.41 9.6958 5.93605 -4.54994
683 228 3 0.41 11.1344 6.42188 -5.03599
684 228 5 -0.82 10.2286 6.76924 -4.76581
685 229 3 0.41 9.16254 4.47017 -21.0633
686 229 3 0.41 10.2262 4.69116 -22.3072
687 229 5 -0.82 9.34694 5.05382 -21.9192
688 230 3 0.41 5.99276 10.337 0.415513
689 230 3 0.41 7.2012 10.0224 1.26993
690 230 5 -0.82 6.9217 9.82896 0.328254
691 231 3 0.41 -1.34928 0.576949 -1.79001
692 231 3 0.41 12.2942 1.8988 -0.907317
693 231 5 -0.82 11.8722 1.16397 -1.53267
694 232 3 0.41 10.2533 6.96583 -8.43605
695 232 3 0.41 10.8546 7.43011 -6.99188
696 232 5 -0.82 10.3887 7.80912 -7.84593
697 233 3 0.41 2.32908 4.92377 -8.62101
698 233 3 0.41 2.76852 4.19618 -7.25143
699 233 5 -0.82 3.04941 4.31167 -8.19444
700 234 3 0.41 0.33428 3.18894 -1.95815
701 234 3 0.41 0.5296 3.31864 -3.50146
702 234 5 -0.82 0.737391 2.65685 -2.7511
703 235 3 0.41 -0.465727 2.14822 12.4431
704 235 3 0.41 0.782058 1.82804 13.5188
705 235 5 -0.82 -0.196566 1.63047 13.2679
706 236 3 0.41 7.79943 6.37061 -7.30495
707 236 3 0.41 7.2173 4.93812 -7.88882
708 236 5 -0.82 7.92411 5.6713 -8.0379
709 237 3 0.41 8.26388 10.5874 16.0637
710 237 3 0.41 6.79212 10.235 16.4843
711 237 5 -0.82 7.40467 11.0544 16.3605
712 238 3 0.41 -0.838449 7.05499 14.4479
713 238 3 0.41 11.6647 7.66235 14.5687
714 238 5 -0.82 12.4607 7.597 13.9663
715 239 3 0.41 -1.27303 2.76393 8.91732
716 239 3 0.41 -1.01388 1.47992 10.0064
717 239 5 -0.82 -0.65162 1.99085 9.2061
718 240 3 0.41 2.59056 6.80357 -14.9845
719 240 3 0.41 3.98082 7.58543 -14.9072
720 240 5 -0.82 3.21955 7.39416 -15.5638
721 241 3 0.41 7.92274 2.37232 0.981462
722 241 3 0.41 8.08413 1.46466 2.35395
723 241 5 -0.82 8.47628 2.21942 1.81174
724 242 3 0.41 6.63961 -0.325391 0.133749
725 242 3 0.41 7.52694 -0.427219 -1.27936
726 242 5 -0.82 6.66545 -0.724432 -0.821236
727 243 3 0.41 -0.548141 12.3215 -14.527
728 243 3 0.41 12.1256 11.6454 -15.1653
729 243 5 -0.82 -1.48987 12.1116 -14.3754
730 244 3 0.41 12.1483 -0.803602 22.0877
731 244 3 0.41 11.0436 0.221015 22.2163
732 244 5 -0.82 11.1906 -0.756558 22.3024
733 245 3 0.41 7.20779 -0.951015 -17.8871
734 245 3 0.41 7.34075 0.521474 -18.5153
735 245 5 -0.82 7.76242 -0.394929 -18.4939
736 246 3 0.41 10.5971 2.58038 19.1875
737 246 3 0.41 11.6418 1.38538 18.8946
738 246 5 -0.82 10.6751 1.60469 18.8476
739 247 3 0.41 1.74841 -0.0731477 19.1643
740 247 3 0.41 3.06884 -1.0305 18.8288
741 247 5 -0.82 2.72589 -0.0762252 18.8009
742 248 3 0.41 10.3128 10.4852 1.99247
743 248 3 0.41 9.96424 9.05901 1.3546
744 248 5 -0.82 10.2689 9.4929 2.23118
745 249 3 0.41 7.59368 5.05039 -13.4275
746 249 3 0.41 7.78238 6.00114 -12.2132
747 249 5 -0.82 7.44849 6.02658 -13.1688
748 250 3 0.41 6.59612 6.39776 21.1215
749 250 3 0.41 5.97278 7.19301 22.3571
750 250 5 -0.82 6.77179 7.1756 21.7396
751 251 3 0.41 8.10498 -1.39139 13.5211
752 251 3 0.41 6.85592 11.5213 13.8089
753 251 5 -0.82 7.08301 -1.47667 13.6325