ITEM: TIMESTEP
60000
ITEM: NUMBER OF ATOMS
1360
ITEM: BOX BOUNDS pp pp pp
-1.5000000000000000e+00 1.2500000000000000e+01
-1.5000000000000000e+00 1.2500000000000000e+01
-2.7500000000000000e+01 2.7500000000000000e+01
ITEM: ATOMS id mol type q x y z
1 1 3 0.41 5.06246 9.96733 9.09341
2 1 3 0.41 3.57511 10.2444 8.52414
3 1 5 -0.82 4.18346 9.50213 8.92205
4 2 3 0.41 4.72497 9.00944 -14.725
5 2 3 0.41 4.47941 7.52138 -15.1426
6 2 5 -0.82 4.70527 8.04222 -14.2899
7 3 3 0.41 8.8882 3.08199 18.264
8 3 3 0.41 8.06813 1.81746 17.5315
9 3 5 -0.82 8.81453 2.52525 17.4008
10 4 3 0.41 4.04228 4.28828 -14.1565
11 4 3 0.41 3.81113 2.98157 -15.0202
12 4 5 -0.82 4.22968 3.92421 -15.093
13 5 3 0.41 6.48566 6.21268 -6.19878
14 5 3 0.41 5.27972 7.33262 -6.15119
15 5 5 -0.82 6.23697 7.22168 -6.34443
16 6 3 0.41 6.27676 8.09841 -19.3462
17 6 3 0.41 6.85391 9.32722 -18.4328
18 6 5 -0.82 7.15219 8.65495 -19.1377
19 7 3 0.41 12.427 0.988432 -20.8136
20 7 3 0.41 12.1513 -0.250761 -21.6514
21 7 5 -0.82 11.9565 0.722652 -21.6758
22 8 3 0.41 5.86079 9.47607 15.2902
23 8 3 0.41 4.74247 10.1385 16.1815
24 8 5 -0.82 4.88073 9.41845 15.5009
25 9 3 0.41 3.20961 10.5307 -13.4935
26 9 3 0.41 2.15818 10.5451 -12.2568
27 9 5 -0.82 2.20834 10.5169 -13.2605
28 10 3 0.41 7.70625 0.755248 3.78192
29 10 3 0.41 7.32235 1.57255 5.12793
30 10 5 -0.82 7.9332 1.56052 4.29724
31 11 3 0.41 4.49084 2.67023 -8.60378
32 11 3 0.41 4.97554 2.17143 -7.17067
33 11 5 -0.82 4.2559 2.09953 -7.86453
34 12 3 0.41 6.7945 -1.32952 -15.4255
35 12 3 0.41 6.45999 11.1008 -15.7348
36 12 5 -0.82 7.20767 11.7401 -15.4427
37 13 3 0.41 3.19171 9.06906 -1.7069
38 13 3 0.41 2.37843 7.98141 -1.08773
39 13 5 -0.82 2.76532 8.20154 -2.00376
40 14 3 0.41 10.1422 6.66986 -11.1487
41 14 3 0.41 11.1503 6.03284 -12.2085
42 14 5 -0.82 10.9687 6.90787 -11.7332
43 15 3 0.41 10.0108 2.41476 12.2293
44 15 3 0.41 11.2101 3.45508 11.7997
45 15 5 -0.82 10.9405 2.77969 12.4772
46 16 3 0.41 12.0195 2.14972 8.31137
47 16 3 0.41 -1.24766 1.44146 6.89279
48 16 5 -0.82 12.4156 1.33273 7.88205
49 17 3 0.41 11.0302 10.2674 22.4347
50 17 3 0.41 -1.30258 10.557 22.4385
51 17 5 -0.82 11.8705 10.3323 21.9282
52 18 3 0.41 4.61917 0.390612 -10.069
53 18 3 0.41 5.50131 -0.932497 -9.75261
54 18 5 -0.82 5.52172 -0.047546 -10.2283
55 19 3 0.41 -0.358455 5.73879 6.69101
56 19 3 0.41 -0.283351 5.27549 8.08339
57 19 5 -0.82 -0.819068 5.08651 7.30158
58 20 3 0.41 0.473301 9.62758 -8.47204
59 20 3 0.41 -0.278279 8.71055 -9.46687
60 20 5 -0.82 -0.0201908 9.68032 -9.37784
61 21 3 0.41 3.23479 9.61102 23.2046
62 21 3 0.41 4.46977 9.64779 22.1419
63 21 5 -0.82 3.48945 9.33118 22.252
64 22 3 0.41 9.41403 12.222 -19.3782
65 22 3 0.41 8.11897 11.2454 -18.9943
66 22 5 -0.82 9.04983 11.2612 -19.3377
67 23 3 0.41 5.91844 1.89964 -12.7158
68 23 3 0.41 5.78258 0.432338 -12.1478
69 23 5 -0.82 5.91727 0.917635 -13.014
70 24 3 0.41 7.2574 2.30144 -19.2607
71 24 3 0.41 8.91782 2.32614 -18.9844
72 24 5 -0.82 7.9942 2.02754 -18.6169
73 25 3 0.41 6.92563 6.43984 -15.9821
74 25 3 0.41 5.64932 6.59409 -16.8416
75 25 5 -0.82 6.53304 7.05448 -16.7011
76 26 3 0.41 0.795304 5.83403 -2.57974
77 26 3 0.41 2.42221 5.33027 -2.6557
78 26 5 -0.82 1.56745 5.60558 -3.20046
79 27 3 0.41 9.60237 9.8008 -10.8121
80 27 3 0.41 8.86927 9.54472 -12.2937
81 27 5 -0.82 8.76764 9.44695 -11.2939
82 28 3 0.41 9.52895 6.8848 -8.90005
83 28 3 0.41 9.53112 7.15726 -7.2266
84 28 5 -0.82 10.1063 7.12905 -8.0798
85 29 3 0.41 6.9494 11.127 18.9889
86 29 3 0.41 6.88069 10.3369 20.4249
87 29 5 -0.82 7.17306 10.2281 19.4592
88 30 3 0.41 10.531 6.88603 12.8713
89 30 3 0.41 11.6967 8.04003 13.1014
90 30 5 -0.82 11.5291 7.03296 13.0124
91 31 3 0.41 11.1856 2.98244 -18.7669
92 31 3 0.41 11.0952 2.97409 -20.408
93 31 5 -0.82 10.5815 2.76625 -19.5821
94 32 3 0.41 10.2548 0.42999 -20.1565
95 32 3 0.41 10.1272 0.340061 -18.5928
96 32 5 -0.82 10.3665 -0.233042 -19.4123
97 33 3 0.41 5.61935 2.64462 -18.5584
98 33 3 0.41 5.27101 1.20584 -19.2028
99 33 5 -0.82 5.33211 2.2008 -19.4356
100 34 3 0.41 6.00638 7.39474 4.34025
101 34 3 0.41 6.35764 7.19771 5.86961
102 34 5 -0.82 5.8256 6.75505 5.11139
103 35 3 0.41 5.7383 4.56257 16.3102
104 35 3 0.41 7.07729 4.89901 17.0929
105 35 5 -0.82 6.23364 4.35464 17.1519
106 36 3 0.41 5.27254 10.3827 -6.75752
107 36 3 0.41 6.10839 8.9716 -6.78771
108 36 5 -0.82 6.19282 9.98603 -6.8551
109 37 3 0.41 -0.696268 -0.250622 21.139
110 37 3 0.41 0.503523 0.288709 22.098
111 37 5 -0.82 -0.435629 -0.163032 22.0998
112 38 3 0.41 9.5337 -0.810221 3.30716
113 38 3 0.41 10.3852 0.0925959 4.16577
114 38 5 -0.82 10.2636 -0.87363 3.97027
115 39 3 0.41 8.52757 2.1494 -14.9406
116 39 3 0.41 7.17854 1.68109 -15.5974
117 39 5 -0.82 7.75049 2.52664 -15.4703
118 40 3 0.41 1.31717 -1.24843 -18.6879
119 40 3 0.41 0.760712 0.0354844 -19.5366
120 40 5 -0.82 1.41048 -0.766687 -19.6122
121 41 3 0.41 -0.733145 6.11952 -7.9462
122 41 3 0.41 -0.700732 4.72306 -7.18974
123 41 5 -0.82 -0.563723 5.6859 -7.02876
124 42 3 0.41 3.81386 -1.18184 8.88271
125 42 3 0.41 4.05001 -0.62786 10.372
126 42 5 -0.82 4.15089 -1.45428 9.82491
127 43 3 0.41 10.1454 10.3727 16.9454
128 43 3 0.41 9.89711 8.80655 16.4357
129 43 5 -0.82 10.3955 9.36033 17.1175
130 44 3 0.41 1.64182 2.06011 -17.9089
131 44 3 0.41 3.12493 1.78628 -18.483
132 44 5 -0.82 2.25854 2.26607 -18.727
133 45 3 0.41 8.70969 12.1033 -3.34598
134 45 3 0.41 9.23631 -1.23717 -4.83445
135 45 5 -0.82 9.47143 12.265 -3.96535
136 46 3 0.41 5.28747 4.98329 18.4116
137 46 3 0.41 5.13831 6.3622 19.3207
138 46 5 -0.82 4.61295 5.62523 18.8408
139 47 3 0.41 1.69799 -0.331298 4.91962
140 47 3 0.41 2.19723 12.1848 4.75399
141 47 5 -0.82 1.81048 -1.17803 5.4465
142 48 3 0.41 0.374657 8.87129 22.13
143 48 3 0.41 -0.18564 7.38766 21.7349
144 48 5 -0.82 0.0147875 8.31819 21.3389
145 49 3 0.41 0.875085 3.66568 -5.40711
146 49 3 0.41 2.42233 3.61199 -5.39644
147 49 5 -0.82 1.62633 3.36106 -5.97814
148 50 3 0.41 10.9835 5.39117 14.0169
149 50 3 0.41 10.9966 3.84353 14.0225
150 50 5 -0.82 11.1991 4.58026 14.645
151 51 3 0.41 1.3656 10.1565 14.9131
152 51 3 0.41 1.17849 9.37056 13.5204
153 51 5 -0.82 1.171 10.3144 13.9525
154 52 3 0.41 8.85804 -1.07808 -9.18419
155 52 3 0.41 8.07307 12.0293 -10.0411
156 52 5 -0.82 8.82744 -1.33712 -10.1946
157 53 3 0.41 7.95003 10.4923 4.78058
158 53 3 0.41 7.8015 11.8974 3.98997
159 53 5 -0.82 7.75673 11.4589 4.91819
160 54 3 0.41 8.64103 9.43805 13.5091
161 54 3 0.41 10.0053 10.3416 13.6021
162 54 5 -0.82 9.63268 9.48573 13.2894
163 55 3 0.41 2.61916 9.23512 4.69863
164 55 3 0.41 4.20628 8.95645 4.69264
165 55 5 -0.82 3.2828 8.55031 4.94949
166 56 3 0.41 0.346716 -0.157961 1.66933
167 56 3 0.41 0.739778 0.821509 0.43177
168 56 5 -0.82 0.359687 0.812751 1.37293
169 57 3 0.41 2.38559 12.0786 -22.0568
170 57 3 0.41 1.25206 12.2906 -20.9794
171 57 5 -0.82 1.39125 12.0189 -21.9485
172 58 3 0.41 12.1031 10.9247 -18.4586
173 58 3 0.41 11.8508 12.011 -19.4622
174 58 5 -0.82 -1.3603 11.5914 -18.958
175 59 3 0.41 6.23728 -0.465165 12.7017
176 59 3 0.41 5.82925 -1.49316 11.6298
177 59 5 -0.82 6.30519 -0.634819 11.6946
178 60 3 0.41 1.28926 0.0831122 -7.18722
179 60 3 0.41 0.199079 -0.60203 -7.96714
180 60 5 -0.82 0.818643 0.199063 -8.09398
181 61 3 0.41 3.70331 6.07941 16.9723
182 61 3 0.41 4.38825 7.40686 16.3834
183 61 5 -0.82 3.6848 6.68346 16.2163
184 62 3 0.41 2.0047 10.9751 -0.862075
185 62 3 0.41 0.676851 10.6613 0.0171512
186 62 5 -0.82 1.74734 10.7323 0.0728137
187 63 3 0.41 9.88247 3.71348 20.0333
188 63 3 0.41 8.25467 4.20903 20.1755
189 63 5 -0.82 8.95411 3.61494 19.7062
190 64 3 0.41 0.0467218 9.14348 2.72661
191 64 3 0.41 1.24709 8.43497 1.84681
192 64 5 -0.82 1.07169 9.1464 2.55987
193 65 3 0.41 4.45997 12.2672 -2.11568
194 65 3 0.41 2.86192 -1.21327 -2.2375
195 65 5 -0.82 3.85185 -1.03018 -2.56271
196 66 3 0.41 6.66107 5.97123 2.58427
197 66 3 0.41 5.48259 5.45464 3.47882
198 66 5 -0.82 6.13187 5.0967 2.77468
199 67 3 0.41 6.54037 7.76731 16.6831
200 67 3 0.41 7.88439 7.11302 15.9919
201 67 5 -0.82 6.86442 7.07367 15.989
202 68 3 0.41 1.54207 4.61887 19.1413
203 68 3 0.41 1.58599 6.18817 19.508
204 68 5 -0.82 1.67804 5.27135 19.9104
205 69 3 0.41 -0.134689 6.95049 -20.9973
206 69 3 0.41 0.696406 7.46813 -19.6958
207 69 5 -0.82 -0.199943 7.60561 -20.134
208 70 3 0.41 4.28656 6.66983 -19.4677
209 70 3 0.41 4.47884 7.88116 -20.4524
210 70 5 -0.82 4.98258 7.29757 -19.7534
211 71 3 0.41 7.05221 7.51688 7.98573
212 71 3 0.41 8.13688 6.58507 8.38987
213 71 5 -0.82 7.11727 6.59095 8.51869
214 72 3 0.41 2.77047 2.47818 18.8866
215 72 3 0.41 3.33815 1.03359 19.1288
216 72 5 -0.82 2.49717 1.58893 19.2411
217 73 3 0.41 10.5229 9.75416 -13.5651
218 73 3 0.41 10.6502 11.2965 -12.8167
219 73 5 -0.82 10.1149 10.6964 -13.4698
220 74 3 0.41 9.38153 10.5975 -1.57555
221 74 3 0.41 11.0206 10.9214 -1.70868
222 74 5 -0.82 10.164 11.1607 -1.20429
223 75 3 0.41 0.832028 8.34077 -6.31862
224 75 3 0.41 -0.503715 8.9198 -6.76691
225 75 5 -0.82 0.496595 9.12928 -6.84908
226 76 3 0.41 8.07015 8.19254 -16.7085
227 76 3 0.41 9.35201 7.77875 -17.517
228 76 5 -0.82 9.0661 8.23204 -16.6829
229 77 3 0.41 11.1407 -1.1438 13.7439
230 77 3 0.41 9.97239 12.0994 14.5364
231 77 5 -0.82 10.8409 11.9301 14.0111
232 78 3 0.41 0.658651 1.9662 -11.5564
233 78 3 0.41 -0.662162 1.17007 -11.483
234 78 5 -0.82 0.0206318 1.57483 -10.8411
235 79 3 0.41 2.45413 0.15537 -8.96472
236 79 3 0.41 2.33444 1.3649 -10.0652
237 79 5 -0.82 2.85658 0.535092 -9.79173
238 80 3 0.41 9.91066 2.07539 -21.4404
239 80 3 0.41 8.38153 2.27325 -21.9426
240 80 5 -0.82 9.19924 1.61723 -22.0396
241 81 3 0.41 6.69411 5.14034 -9.42232
242 81 3 0.41 5.71769 6.00896 -8.57777
243 81 5 -0.82 6.39399 6.10385 -9.30893
244 82 3 0.41 -1.07681 12.1008 4.46984
245 82 3 0.41 -1.42156 10.684 3.88966
246 82 5 -0.82 -0.677134 11.3275 3.94563
247 83 3 0.41 3.0558 9.05143 1.48995
248 83 3 0.41 4.10692 9.39546 0.419422
249 83 5 -0.82 3.94927 8.72336 1.15776
250 84 3 0.41 2.42982 10.9712 11.6927
251 84 3 0.41 3.65244 11.2895 10.7823
252 84 5 -0.82 3.37252 10.6313 11.5252
253 85 3 0.41 1.84174 1.33733 20.8759
254 85 3 0.41 2.02277 2.26516 22.1593
255 85 5 -0.82 1.93574 1.28935 21.895
256 86 3 0.41 3.7401 5.35329 -18.0411
257 86 3 0.41 3.63559 5.38535 -16.4529
258 86 5 -0.82 4.0618 5.89219 -17.216
259 87 3 0.41 0.44333 -1.37837 11.5417
260 87 3 0.41 0.261682 11.232 12.4667
261 87 5 -0.82 0.0703945 11.6583 11.5749
262 88 3 0.41 11.4404 5.54921 11.4696
263 88 3 0.41 -1.12621 5.17339 10.6428
264 88 5 -0.82 11.9254 4.8622 10.8965
265 89 3 0.41 10.9074 9.6656 -16.0865
266 89 3 0.41 10.9599 11.2593 -16.2899
267 89 5 -0.82 11.5334 10.4436 -16.1077
268 90 3 0.41 7.00437 7.76294 -8.79654
269 90 3 0.41 7.84524 8.67003 -10.0612
270 90 5 -0.82 7.08405 8.66379 -9.32207
271 91 3 0.41 4.37589 11.3118 2.82954
272 91 3 0.41 5.71563 12.2277 2.4325
273 91 5 -0.82 5.34994 11.2591 2.49537
274 92 3 0.41 3.88399 0.3183 7.77458
275 92 3 0.41 2.52109 0.468209 6.95771
276 92 5 -0.82 2.85045 0.322481 7.9097
277 93 3 0.41 -0.808071 4.02728 17.1645
278 93 3 0.41 0.783037 4.47444 16.8487
279 93 5 -0.82 0.0866098 4.39839 17.5644
280 94 3 0.41 8.92185 5.15022 4.92394
281 94 3 0.41 7.58307 4.80231 5.69442
282 94 5 -0.82 8.11792 4.57386 4.9019
283 95 3 0.41 5.04725 2.06919 20.0701
284 95 3 0.41 5.70187 2.79692 18.8298
285 95 5 -0.82 5.3855 2.97902 19.7437
286 96 3 0.41 1.63726 -0.351649 8.46006
287 96 3 0.41 0.770886 -0.567764 9.82177
288 96 5 -0.82 0.701326 -0.570257 8.80514
289 97 3 0.41 1.12439 11.5183 19.2102
290 97 3 0.41 1.03913 9.86796 19.333
291 97 5 -0.82 1.56335 10.6212 18.8711
292 98 3 0.41 4.44581 11.3958 -17.5177
293 98 3 0.41 3.0844 12.117 -16.9677
294 98 5 -0.82 4.08858 12.2236 -17.0624
295 99 3 0.41 10.9675 -1.34007 2.47479
296 99 3 0.41 11.4911 -0.648641 1.07886
297 99 5 -0.82 11.488 12.4465 1.62653
298 100 3 0.41 0.790174 12.1104 -6.11122
299 100 3 0.41 0.795524 10.6369 -6.92732
300 100 5 -0.82 1.15153 11.6298 -6.92613
301 101 3 0.41 -1.31672 0.365395 -4.56574
302 101 3 0.41 -0.369535 -0.813254 -4.82419
303 101 5 -0.82 -0.437457 0.167903 -5.04088
304 102 3 0.41 2.71462 11.1749 -19.5528
305 102 3 0.41 3.32805 9.78183 -19.6589
306 102 5 -0.82 3.63342 10.7407 -19.6197
307 103 3 0.41 11.4098 4.03434 9.55727
308 103 3 0.41 10.8804 3.7182 8.1478
309 103 5 -0.82 11.0404 3.25574 9.01096
310 104 3 0.41 0.22013 9.67543 -16.4857
311 104 3 0.41 0.361542 10.3052 -15.0258
312 104 5 -0.82 0.875367 10.1164 -15.8897
313 105 3 0.41 5.85319 9.96841 4.90297
314 105 3 0.41 5.55213 10.0163 3.36778
315 105 5 -0.82 5.83599 9.34205 4.10657
316 106 3 0.41 -1.21002 6.56959 -5.796
317 106 3 0.41 -0.870719 6.80853 -4.2694
318 106 5 -0.82 12.4784 7.11535 -4.95315
319 107 3 0.41 1.43027 7.45298 -12.6034
320 107 3 0.41 2.3431 8.72927 -12.5378
321 107 5 -0.82 2.31156 7.79015 -12.244
322 108 3 0.41 1.5399 12.3967 -10.5629
323 108 3 0.41 0.515393 -0.506365 -10.9329
324 108 5 -0.82 0.595992 -1.49223 -10.939
325 109 3 0.41 0.864422 11.5911 -16.6217
326 109 3 0.41 1.19237 -0.895364 -16.2846
327 109 5 -0.82 1.35374 12.3657 -16.9981
328 110 3 0.41 0.642902 9.30461 -19.774
329 110 3 0.41 0.239256 10.7244 -19.138
330 110 5 -0.82 0.996219 10.112 -19.2704
331 111 3 0.41 -0.882775 8.65817 -12.397
332 111 3 0.41 11.8888 8.57129 -11.4383
333 111 5 -0.82 -1.48684 9.26965 -11.8008
334 112 3 0.41 9.24794 1.36608 -16.9578
335 112 3 0.41 10.4757 1.99655 -16.2187
336 112 5 -0.82 10.2252 1.23347 -16.8808
337 113 3 0.41 0.744959 2.52916 16.1082
338 113 3 0.41 1.18526 1.68375 17.4136
339 113 5 -0.82 0.71501 1.57638 16.5326
340 114 3 0.41 8.75252 5.75113 -14.844
341 114 3 0.41 9.40707 5.3122 -16.0187
342 114 5 -0.82 9.74153 5.59036 -15.13
343 115 3 0.41 11.1058 6.57391 4.68482
344 115 3 0.41 12.4861 6.67065 3.92246
345 115 5 -0.82 11.9681 7.06149 4.7566
346 116 3 0.41 9.13941 1.16538 14.8223
347 116 3 0.41 10.6785 1.1268 15.2029
348 116 5 -0.82 9.94633 1.75681 14.8675
349 117 3 0.41 4.2375 11.3227 -21.5724
350 117 3 0.41 4.87219 12.2719 -22.7923
351 117 5 -0.82 4.00841 12.0574 -22.249
352 118 3 0.41 10.7504 10.8627 -6.78845
353 118 3 0.41 10.4407 12.3828 -6.50673
354 118 5 -0.82 11.2321 11.7253 -6.54844
355 119 3 0.41 1.67071 3.3092 -7.74089
356 119 3 0.41 2.34834 3.2614 -9.1341
357 119 5 -0.82 1.43349 3.22166 -8.73872
358 120 3 0.41 12.2846 9.17093 -0.164935
359 120 3 0.41 -1.17981 7.7731 0.300463
360 120 5 -0.82 12.0022 8.34021 0.348876
361 121 3 0.41 3.76774 5.0528 -10.1779
362 121 3 0.41 4.90192 4.05387 -10.1965
363 121 5 -0.82 3.92233 4.04677 -10.2146
364 122 3 0.41 5.17736 4.09226 0.403252
365 122 3 0.41 6.64316 4.40242 -0.145135
366 122 5 -0.82 5.84923 3.78749 -0.303133
367 123 3 0.41 2.17094 2.31224 7.99028
368 123 3 0.41 2.13639 3.05045 6.66037
369 123 5 -0.82 1.68972 3.08267 7.54235
370 124 3 0.41 3.6311 0.355095 1.33885
371 124 3 0.41 4.20482 -1.1241 0.965564
372 124 5 -0.82 3.64059 -0.626426 1.64826
373 125 3 0.41 10.4197 7.0638 -22.0794
374 125 3 0.41 10.9899 5.49956 -22.0363
375 125 5 -0.82 11.2747 6.48755 -22.0067
376 126 3 0.41 0.177317 5.0895 -22.3983
377 126 3 0.41 -0.905664 6.26401 -22.4751
378 126 5 -0.82 0.0296568 6.06748 -22.2149
379 127 3 0.41 1.28371 3.34444 11.5962
380 127 3 0.41 2.49791 4.27024 12.2794
381 127 5 -0.82 2.28543 3.34285 11.9377
382 128 3 0.41 5.58701 6.5434 11.3331
383 128 3 0.41 6.30866 7.12838 10.0482
384 128 5 -0.82 5.5657 7.33096 10.7184
385 129 3 0.41 5.8985 12.3338 8.76335
386 129 3 0.41 6.83119 11.1754 8.64662
387 129 5 -0.82 6.75676 12.1549 8.35799
388 130 3 0.41 5.98391 7.47757 -3.77012
389 130 3 0.41 7.16742 6.79712 -2.873
390 130 5 -0.82 6.38329 6.59879 -3.5505
391 131 3 0.41 5.28675 6.95978 -13.1062
392 131 3 0.41 5.40745 6.58405 -11.5173
393 131 5 -0.82 5.66021 6.25414 -12.4497
394 132 3 0.41 10.7157 0.720449 -3.00727
395 132 3 0.41 10.7925 -0.839136 -3.31755
396 132 5 -0.82 11.3775 0.0107034 -3.2506
397 133 3 0.41 -0.798203 3.24305 4.80219
398 133 3 0.41 -0.736661 3.51177 6.38533
399 133 5 -0.82 -1.09261 2.85234 5.68178
400 134 3 0.41 4.6724 2.74507 5.17964
401 134 3 0.41 5.89299 3.54011 5.60632
402 134 5 -0.82 5.55275 3.04473 4.80544
403 135 3 0.41 8.90077 11.7812 -16.1404
404 135 3 0.41 9.20805 -1.18851 -17.2481
405 135 5 -0.82 9.67723 12.2458 -16.5598
406 136 3 0.41 4.64617 3.14698 15.1889
407 136 3 0.41 4.32159 4.59691 14.7551
408 136 5 -0.82 4.07366 3.92622 15.5076
409 137 3 0.41 0.621255 8.62623 8.71426
410 137 3 0.41 0.996838 7.55823 7.64119
411 137 5 -0.82 0.622806 7.60802 8.58025
412 138 3 0.41 6.22999 9.48029 7.03756
413 138 3 0.41 7.62451 9.02807 6.40568
414 138 5 -0.82 6.9196 8.74413 7.03348
415 139 3 0.41 2.56934 6.51112 21.1877
416 139 3 0.41 3.09632 7.70029 22.0428
417 139 5 -0.82 2.94776 6.69463 22.0493
418 140 3 0.41 1.53582 0.722367 -1.82621
419 140 3 0.41 2.45499 0.371714 -0.451748
420 140 5 -0.82 1.86308 0.0305169 -1.17184
421 141 3 0.41 6.16196 8.35553 -22.0741
422 141 3 0.41 6.71226 9.78171 -21.6523
423 141 5 -0.82 5.88108 9.32713 -22.0304
424 142 3 0.41 10.5378 8.59804 -0.114856
425 142 3 0.41 9.28078 9.31791 0.568009
426 142 5 -0.82 9.46571 8.59667 -0.104077
427 143 3 0.41 12.1208 10.6153 8.97095
428 143 3 0.41 12.3417 10.4531 7.35901
429 143 5 -0.82 12.4737 11.1048 8.13061
430 144 3 0.41 11.8732 12.1076 -8.09676
431 144 3 0.41 12.0889 -0.480407 -8.84039
432 144 5 -0.82 12.362 -1.47151 -8.89132
433 145 3 0.41 8.22353 10.4353 -7.06441
434 145 3 0.41 8.93339 9.39909 -6.26845
435 145 5 -0.82 9.09968 9.93391 -7.03496
436 146 3 0.41 -0.976422 10.5711 -4.56156
437 146 3 0.41 -1.39905 11.6491 -5.55187
438 146 5 -0.82 -0.639738 11.4603 -4.9022
439 147 3 0.41 5.66012 1.05633 -5.18544
440 147 3 0.41 6.06083 2.40459 -4.59858
441 147 5 -0.82 5.91235 2.02068 -5.53882
442 148 3 0.41 -1.24957 9.53576 17.9751
443 148 3 0.41 -1.35074 10.8901 19.0051
444 148 5 -0.82 -1.32488 9.8733 18.9184
445 149 3 0.41 9.4007 1.00105 -6.54895
446 149 3 0.41 9.91191 1.96484 -5.37163
447 149 5 -0.82 10.1147 1.71936 -6.37222
448 150 3 0.41 6.37776 12.4043 -19.0666
449 150 3 0.41 5.26225 11.4175 -19.7414
450 150 5 -0.82 6.1885 11.79 -19.8766
451 151 3 0.41 3.92441 7.25498 6.46073
452 151 3 0.41 4.2474 7.77646 7.9438
453 151 5 -0.82 3.92744 6.98267 7.44625
454 152 3 0.41 7.53324 -0.788946 7.5
455 152 3 0.41 7.99925 -1.20265 6.12
456 152 5 -0.82 7.92723 -0.315047 6.65054
457 153 3 0.41 1.91535 7.99891 11.4714
458 153 3 0.41 1.92925 7.52665 9.84766
459 153 5 -0.82 2.47089 7.53404 10.7348
460 154 3 0.41 3.6143 1.57919 -16.4055
461 154 3 0.41 3.93224 0.111053 -16.9786
462 154 5 -0.82 4.14847 1.10466 -17.1394
463 155 3 0.41 7.4533 1.61871 23.1307
464 155 3 0.41 8.86856 1.94453 22.3862
465 155 5 -0.82 7.85987 2.02386 22.2826
466 156 3 0.41 3.27022 -0.491135 -19.6242
467 156 3 0.41 4.44109 -0.847658 -20.5878
468 156 5 -0.82 4.26996 -0.342803 -19.7674
469 157 3 0.41 8.08194 1.07059 20.2337
470 157 3 0.41 8.49167 -0.456764 20.3127
471 157 5 -0.82 8.16679 0.21799 19.646
472 158 3 0.41 3.35214 7.31106 -11.086
473 158 3 0.41 3.723 6.92811 -9.60423
474 158 5 -0.82 3.80931 6.5646 -10.5419
475 159 3 0.41 11.6023 3.19439 -14.5354
476 159 3 0.41 10.2197 3.71115 -15.1493
477 159 5 -0.82 10.9494 3.01592 -15.3218
478 160 3 0.41 11.8664 0.214382 17.0262
479 160 3 0.41 -1.43344 -0.461143 15.9416
480 160 5 -0.82 11.7413 0.0741606 16.0734
481 161 3 0.41 3.32064 0.849777 -13.735
482 161 3 0.41 2.00294 0.484113 -14.6278
483 161 5 -0.82 2.92339 0.991758 -14.6524
484 162 3 0.41 12.4441 11.5705 0.41075
485 162 3 0.41 -0.824128 11.5265 -1.04291
486 162 5 -0.82 -0.97228 10.9757 -0.16052
487 163 3 0.41 5.70083 3.59617 -2.1541
488 163 3 0.41 7.05792 3.60862 -2.99418
489 163 5 -0.82 6.11322 3.38147 -3.02593
490 164 3 0.41 3.77456 4.93919 -7.47109
491 164 3 0.41 4.85533 4.50916 -6.25007
492 164 5 -0.82 4.77879 4.91329 -7.19021
493 165 3 0.41 3.41011 3.67752 17.0408
494 165 3 0.41 3.46883 4.42524 18.3745
495 165 5 -0.82 2.82212 3.78265 17.8721
496 166 3 0.41 9.53107 5.81459 17.8438
497 166 3 0.41 10.7897 4.9173 18.3141
498 166 5 -0.82 10.3219 5.27883 17.4808
499 167 3 0.41 -0.10729 1.40366 -16.3765
500 167 3 0.41 0.759316 2.46635 -15.5355
501 167 5 -0.82 0.692366 2.01809 -16.436
502 168 3 0.41 -0.89577 1.47783 -5.80819
503 168 3 0.41 11.7355 2.16694 -6.42592
504 168 5 -0.82 -1.24929 2.30329 -6.34597
505 169 3 0.41 -0.526121 2.62452 -0.541118
506 169 3 0.41 -1.39473 2.60364 -1.92657
507 169 5 -0.82 -1.15673 2.08616 -1.09053
508 170 3 0.41 5.42098 -0.520162 -0.824206
509 170 3 0.41 6.46185 -1.22303 0.229576
510 170 5 -0.82 5.57036 -1.37829 -0.208306
511 171 3 0.41 2.98484 1.91808 11.1938
512 171 3 0.41 3.61322 1.18713 9.88969
513 171 5 -0.82 3.57405 1.1685 10.8811
514 172 3 0.41 2.81959 -0.638845 22.6065
515 172 3 0.41 4.22089 -1.3211 22.4699
516 172 5 -0.82 3.24844 12.4494 22.3913
517 173 3 0.41 10.1256 1.98639 4.64147
518 173 3 0.41 11.5256 1.93959 5.60622
519 173 5 -0.82 10.6342 1.47159 5.34397
520 174 3 0.41 3.07569 11.114 19.5206
521 174 3 0.41 3.55461 11.724 20.9448
522 174 5 -0.82 3.82175 11.581 20.0036
523 175 3 0.41 5.89092 2.54988 13.6692
524 175 3 0.41 6.68211 1.82645 14.8241
525 175 5 -0.82 6.15844 2.66845 14.6388
526 176 3 0.41 6.30965 -0.129518 6.64075
527 176 3 0.41 5.15249 -0.242575 5.44225
528 176 5 -0.82 5.30233 -0.203583 6.49802
529 177 3 0.41 6.96238 1.96533 10.2671
530 177 3 0.41 6.87861 0.416743 10.5972
531 177 5 -0.82 7.09753 1.0666 9.83949
532 178 3 0.41 11.4608 9.24525 -9.14375
533 178 3 0.41 10.0275 9.80371 -8.53972
534 178 5 -0.82 10.6702 9.85172 -9.36395
535 179 3 0.41 -1.43598 3.65416 -22.2211
536 179 3 0.41 11.6288 2.35819 -22.1992
537 179 5 -0.82 11.6183 3.34442 -22.0263
538 180 3 0.41 6.71327 11.946 -5.31535
539 180 3 0.41 6.48465 -1.06737 -4.06625
540 180 5 -0.82 6.11643 12.0745 -4.48326
541 181 3 0.41 0.771906 8.68638 -4.47461
542 181 3 0.41 1.37211 8.44772 -3.02524
543 181 5 -0.82 0.558479 8.80671 -3.48719
544 182 3 0.41 1.82174 5.60778 -10.9956
545 182 3 0.41 0.768702 4.39668 -10.3506
546 182 5 -0.82 0.848163 5.34281 -10.7466
547 183 3 0.41 2.36188 5.65106 -13.9816
548 183 3 0.41 3.15473 5.75848 -12.5408
549 183 5 -0.82 2.59723 5.12397 -13.1313
550 184 3 0.41 0.514623 7.19102 17.6443
551 184 3 0.41 0.139371 7.5357 19.0396
552 184 5 -0.82 0.971947 7.47196 18.5218
553 185 3 0.41 12.1765 6.29621 -20.0736
554 185 3 0.41 10.8104 6.19576 -19.44
555 185 5 -0.82 11.6922 5.85843 -19.315
556 186 3 0.41 10.6732 -1.40732 -10.8621
557 186 3 0.41 11.8295 -0.868531 -11.8006
558 186 5 -0.82 11.3518 12.269 -11.5755
559 187 3 0.41 5.12325 4.81563 6.19308
560 187 3 0.41 5.76907 5.32448 7.59435
561 187 5 -0.82 5.80118 4.55379 6.94483
562 188 3 0.41 -0.34114 9.32327 -21.9786
563 188 3 0.41 0.797369 10.4052 -22.1858
564 188 5 -0.82 0.663065 9.41408 -22.1933
565 189 3 0.41 3.04979 9.39874 16.251
566 189 3 0.41 2.13345 10.2269 17.2337
567 189 5 -0.82 2.10138 9.78382 16.3085
568 190 3 0.41 1.90328 10.9677 8.20171
569 190 3 0.41 2.26061 11.7076 6.78733
570 190 5 -0.82 2.62863 11.1033 7.51226
571 191 3 0.41 3.71322 0.826058 15.1335
572 191 3 0.41 3.37453 0.282404 16.5718
573 191 5 -0.82 4.15713 0.46007 15.9295
574 192 3 0.41 5.46626 0.105872 22.1145
575 192 3 0.41 6.74636 -0.927482 22.1839
576 192 5 -0.82 5.72707 -0.845539 22.1225
577 193 3 0.41 3.0294 0.631709 12.9363
578 193 3 0.41 3.26082 2.16667 13.245
579 193 5 -0.82 3.28221 1.28636 13.6528
580 194 3 0.41 10.4807 11.7052 5.00425
581 194 3 0.41 9.93123 10.1627 5.28311
582 194 5 -0.82 10.6623 10.8603 5.47367
583 195 3 0.41 10.8168 6.26593 9.54713
584 195 3 0.41 9.54949 5.79974 10.3992
585 195 5 -0.82 9.8742 5.95031 9.43927
586 196 3 0.41 9.73589 -0.488147 -22.0978
587 196 3 0.41 10.7449 12.3149 -22.0208
588 196 5 -0.82 9.75684 -1.4942 -22.1714
589 197 3 0.41 10.7588 12.2983 6.7206
590 197 3 0.41 10.0973 -1.47867 8.22059
591 197 5 -0.82 10.6312 -1.02138 7.42395
592 198 3 0.41 -0.0839235 5.15479 -16.7536
593 198 3 0.41 0.700407 3.75008 -16.841
594 198 5 -0.82 0.812422 4.77373 -16.9634
595 199 3 0.41 0.738419 12.1363 -13.885
596 199 3 0.41 1.79488 -0.864679 -13.2895
597 199 5 -0.82 1.13237 -0.965719 -14.0741
598 200 3 0.41 9.52081 7.23005 6.99287
599 200 3 0.41 9.57196 5.64356 6.67195
600 200 5 -0.82 9.29701 6.57804 6.27583
601 201 3 0.41 8.7099 7.5516 10.6825
602 201 3 0.41 9.36615 8.93655 11.2627
603 201 5 -0.82 8.88637 8.57682 10.4762
604 202 3 0.41 9.03379 5.40127 -18.0609
605 202 3 0.41 8.20621 4.11706 -17.5979
606 202 5 -0.82 9.04988 4.66611 -17.3865
607 203 3 0.41 0.445867 7.53177 12.9592
608 203 3 0.41 -0.342682 8.68053 12.38
609 203 5 -0.82 0.583578 8.31166 12.2733
610 204 3 0.41 8.51022 10.5322 -20.6654
611 204 3 0.41 8.81877 11.0249 -22.1595
612 204 5 -0.82 8.42308 10.2199 -21.6785
613 205 3 0.41 10.1271 1.18115 -12.1513
614 205 3 0.41 11.3418 2.00717 -11.6524
615 205 5 -0.82 10.7584 1.24917 -11.3335
616 206 3 0.41 9.09203 3.21127 6.826
617 206 3 0.41 8.04254 2.95409 8.07473
618 206 5 -0.82 8.54145 2.47713 7.32255
619 207 3 0.41 4.34904 4.68001 10.0574
620 207 3 0.41 5.90411 4.28778 10.4039
621 207 5 -0.82 5.01217 4.54941 10.8278
622 208 3 0.41 2.02246 7.20088 15.3763
623 208 3 0.41 1.31725 6.10912 14.4367
624 208 5 -0.82 1.14147 7.02372 14.8699
625 209 3 0.41 10.0565 7.57466 -14.835
626 209 3 0.41 10.7365 7.46224 -13.4282
627 209 5 -0.82 10.3763 8.12653 -14.0869
628 210 3 0.41 10.362 7.44498 14.9544
629 210 3 0.41 10.1224 6.37217 16.251
630 210 5 -0.82 9.68191 7.06783 15.6122
631 211 3 0.41 1.21995 7.69467 5.79997
632 211 3 0.41 0.282652 6.73241 4.78629
633 211 5 -0.82 0.717868 6.78956 5.72339
634 212 3 0.41 12.0686 5.95603 19.2364
635 212 3 0.41 11.727 6.92064 17.9962
636 212 5 -0.82 12.2412 6.92815 18.8647
637 213 3 0.41 11.1391 8.65503 7.20478
638 213 3 0.41 12.051 7.96633 6.13556
639 213 5 -0.82 12.1094 8.53506 6.94745
640 214 3 0.41 8.70345 3.15184 1.03894
641 214 3 0.41 8.59687 4.67403 1.74142
642 214 5 -0.82 8.67113 3.65394 1.96305
643 215 3 0.41 6.12378 8.66147 -16.8265
644 215 3 0.41 4.69407 9.35583 -17.0561
645 215 5 -0.82 5.69015 9.5712 -17.0265
646 216 3 0.41 9.02784 0.913893 10.0466
647 216 3 0.41 10.1999 1.72746 9.49358
648 216 5 -0.82 9.86344 0.780457 9.48281
649 217 3 0.41 10.3127 3.87763 -6.71827
650 217 3 0.41 10.2201 5.33685 -7.23523
651 217 5 -0.82 10.6046 4.77759 -6.46404
652 218 3 0.41 -0.094487 4.81322 3.00461
653 218 3 0.41 0.357079 6.05464 2.29647
654 218 5 -0.82 -0.121862 5.80629 3.16464
655 219 3 0.41 9.43899 3.26736 -10.214
656 219 3 0.41 9.243 2.81747 -8.72236
657 219 5 -0.82 9.91456 3.27816 -9.33618
658 220 3 0.41 11.4393 7.34813 22.7817
659 220 3 0.41 10.65 6.56007 21.7196
660 220 5 -0.82 11.171 7.46255 21.8274
661 221 3 0.41 10.1265 0.628617 -13.9177
662 221 3 0.41 8.78822 0.547358 -13.2688
663 221 5 -0.82 9.4223 1.27916 -13.5718
664 222 3 0.41 4.05703 8.91386 -22.1849
665 222 3 0.41 2.52687 9.03363 -21.9528
666 222 5 -0.82 3.35537 8.57574 -21.5176
667 223 3 0.41 11.1775 4.20441 2.97126
668 223 3 0.41 9.78561 4.05144 3.54559
669 223 5 -0.82 10.7299 4.30102 3.87567
670 224 3 0.41 7.46855 9.7578 9.75772
671 224 3 0.41 6.70736 10.451 10.8858
672 224 5 -0.82 6.59715 10.1757 9.89095
673 225 3 0.41 -1.14586 4.38784 -4.13129
674 225 3 0.41 -0.980269 3.01315 -4.87841
675 225 5 -0.82 -0.765413 3.48259 -3.96276
676 226 3 0.41 11.5515 4.58334 20.7977
677 226 3 0.41 -1.48637 3.75372 19.7041
678 226 5 -0.82 11.7176 4.40595 19.7828
679 227 3 0.41 -0.5792 4.785 22.1818
680 227 3 0.41 0.610134 5.54568 21.4464
681 227 5 -0.82 -0.215813 5.71541 21.9723
682 228 3 0.41 11.1976 6.57124 -4.26215
683 228 3 0.41 10.2431 5.45157 -4.70781
684 228 5 -0.82 10.2864 6.12638 -4.00623
685 229 3 0.41 8.38655 4.57346 -21.5344
686 229 3 0.41 9.5802 4.08969 -20.6987
687 229 5 -0.82 9.28503 4.90825 -21.1435
688 230 3 0.41 7.15146 9.78924 -2.53052
689 230 3 0.41 7.52652 10.8432 -1.36329
690 230 5 -0.82 7.82354 10.4678 -2.26084
691 231 3 0.41 1.44697 3.26442 -0.18807
692 231 3 0.41 0.84276 4.70865 0.282061
693 231 5 -0.82 0.619226 3.70877 0.10524
694 232 3 0.41 11.1717 8.36292 -7.45674
695 232 3 0.41 11.6084 8.49239 -6.01212
696 232 5 -0.82 11.8918 8.83513 -6.94531
697 233 3 0.41 1.32898 6.19146 -8.44903
698 233 3 0.41 2.54742 7.20707 -8.04144
699 233 5 -0.82 2.26236 6.24424 -8.00332
700 234 3 0.41 3.72511 2.55128 -2.02304
701 234 3 0.41 2.20213 2.55183 -2.38575
702 234 5 -0.82 2.82241 2.88906 -1.64722
703 235 3 0.41 -0.0503092 2.24917 13.3802
704 235 3 0.41 -1.32913 2.82826 12.7974
705 235 5 -0.82 -0.343154 2.98165 12.7909
706 236 3 0.41 8.77421 7.27991 -4.64005
707 236 3 0.41 7.52169 7.83155 -5.47231
708 236 5 -0.82 8.3297 8.08409 -4.98623
709 237 3 0.41 7.46274 10.5564 16.6045
710 237 3 0.41 7.63555 11.3215 15.1261
711 237 5 -0.82 7.52565 10.4292 15.5917
712 238 3 0.41 11.7781 10.2979 13.8152
713 238 3 0.41 -1.17041 9.53526 14.7534
714 238 5 -0.82 12.2917 9.42392 13.9053
715 239 3 0.41 0.381619 3.23935 9.68933
716 239 3 0.41 0.0997954 1.84269 9.00002
717 239 5 -0.82 0.36466 2.25769 9.92183
718 240 3 0.41 1.8904 7.54892 -15.8229
719 240 3 0.41 1.38456 5.92876 -16.1447
720 240 5 -0.82 1.91261 6.56599 -15.5313
721 241 3 0.41 9.4881 1.98386 2.39558
722 241 3 0.41 10.8323 1.22096 1.72583
723 241 5 -0.82 10.3662 1.53518 2.62844
724 242 3 0.41 8.44742 -0.647094 -0.120431
725 242 3 0.41 9.4763 -1.37795 -1.10661
726 242 5 -0.82 8.81406 -0.588438 -1.03544
727 243 3 0.41 -1.22771 10.3227 -13.2293
728 243 3 0.41 12.4561 10.8468 -14.7517
729 243 5 -0.82 -0.972349 11.0072 -13.9603
730 244 3 0.41 11.659 -0.483304 22.2936
731 244 3 0.41 10.7273 0.612534 21.7912
732 244 5 -0.82 10.8875 -0.389827 21.7256
733 245 3 0.41 6.73859 -0.356986 -17.2433
734 245 3 0.41 7.60873 0.482339 -18.2933
735 245 5 -0.82 7.42522 -0.476862 -17.9934
736 246 3 0.41 9.9757 0.61145 18.985
737 246 3 0.41 11.3916 0.712669 19.6902
738 246 5 -0.82 10.7168 1.29769 19.1941
739 247 3 0.41 1.8415 -1.14145 18.068
740 247 3 0.41 1.90227 -0.986613 16.4816
741 247 5 -0.82 2.45084 -0.927468 17.3371
742 248 3 0.41 10.3594 10.9598 1.64133
743 248 3 0.41 10.4134 9.78138 2.6181
744 248 5 -0.82 9.75709 10.2489 2.02318
745 249 3 0.41 7.0382 4.59199 -14.8811
746 249 3 0.41 6.68306 5.79021 -13.7802
747 249 5 -0.82 7.17071 5.58508 -14.677
748 250 3 0.41 8.10579 6.50313 22.5938
749 250 3 0.41 7.30945 7.26287 21.474
750 250 5 -0.82 8.08296 7.38132 22.1527
751 251 3 0.41 5.47586 11.0653 13.2182
752 251 3 0.41 6.51178 9.83539 12.9139
753 251 5 -0.82 6.10112 10.6472 12.4489