ITEM: TIMESTEP
30000
ITEM: NUMBER OF ATOMS
1360
ITEM: BOX BOUNDS pp pp pp
-1.5000000000000000e+00 1.2500000000000000e+01
-1.5000000000000000e+00 1.2500000000000000e+01
-2.7500000000000000e+01 2.7500000000000000e+01
ITEM: ATOMS id mol type q x y z
1 1 3 0.41 5.21914 8.36283 7.21954
2 1 3 0.41 6.30952 9.22479 7.91919
3 1 5 -0.82 5.43562 8.79125 8.14935
4 2 3 0.41 7.57008 5.07249 -13.3329
5 2 3 0.41 6.41416 4.70728 -12.2898
6 2 5 -0.82 7.44079 4.76463 -12.3753
7 3 3 0.41 11.2631 -0.254076 17.912
8 3 3 0.41 10.1803 0.905969 18.2975
9 3 5 -0.82 10.7685 0.536502 17.513
10 4 3 0.41 6.04591 -0.219039 -16.5305
11 4 3 0.41 6.94859 0.944308 -16.3865
12 4 5 -0.82 6.14115 0.621392 -15.9572
13 5 3 0.41 -0.632796 7.83644 -7.97565
14 5 3 0.41 12.0128 7.55504 -8.9619
15 5 5 -0.82 -1.02262 7.94519 -8.90134
16 6 3 0.41 3.23121 -0.014033 -16.3523
17 6 3 0.41 3.27525 -1.49034 -17.1459
18 6 5 -0.82 3.46259 -0.526234 -17.2482
19 7 3 0.41 0.409296 6.11918 -21.3157
20 7 3 0.41 -0.962346 6.41632 -22.1682
21 7 5 -0.82 -0.197292 5.75458 -22.0123
22 8 3 0.41 5.77311 4.8815 14.2138
23 8 3 0.41 5.10659 5.56525 15.5773
24 8 5 -0.82 4.96251 4.89611 14.8204
25 9 3 0.41 6.0427 8.20144 -16.7732
26 9 3 0.41 6.18207 9.47893 -17.8478
27 9 5 -0.82 6.0558 9.24876 -16.8757
28 10 3 0.41 11.0345 0.393148 4.13614
29 10 3 0.41 11.5734 -0.501779 2.9028
30 10 5 -0.82 11.1217 0.405767 3.14001
31 11 3 0.41 7.07593 2.95582 -7.39915
32 11 3 0.41 6.08516 1.73008 -6.7585
33 11 5 -0.82 6.22945 2.40864 -7.5037
34 12 3 0.41 8.20518 6.98674 -18.9515
35 12 3 0.41 9.02196 8.15495 -18.226
36 12 5 -0.82 8.54152 7.91424 -19.0652
37 13 3 0.41 2.91911 4.51767 3.93172
38 13 3 0.41 4.01757 5.1512 2.90952
39 13 5 -0.82 3.85411 4.84446 3.88449
40 14 3 0.41 8.51399 2.09143 -4.01353
41 14 3 0.41 8.49384 0.518218 -4.27573
42 14 5 -0.82 7.93571 1.36397 -4.36667
43 15 3 0.41 11.5799 0.870712 9.42035
44 15 3 0.41 11.117 -0.237725 10.5209
45 15 5 -0.82 11.0205 -0.00574587 9.58363
46 16 3 0.41 -0.407895 -1.32729 8.24713
47 16 3 0.41 -0.148699 12.1887 6.7456
48 16 5 -0.82 -0.812075 12.1196 7.53698
49 17 3 0.41 0.322556 7.12974 22.7441
50 17 3 0.41 0.939442 8.61358 22.3297
51 17 5 -0.82 0.708018 7.66516 22.0024
52 18 3 0.41 8.83059 0.781906 -8.65254
53 18 3 0.41 9.83981 0.635809 -10.0121
54 18 5 -0.82 8.85984 0.809259 -9.69492
55 19 3 0.41 2.59142 -0.36472 1.94699
56 19 3 0.41 2.77084 -1.40514 3.15098
57 19 5 -0.82 3.02086 -0.475429 2.84213
58 20 3 0.41 -0.903809 7.83198 -12.0148
59 20 3 0.41 -0.402548 6.69225 -11.1484
60 20 5 -0.82 -0.0133568 7.31281 -11.876
61 21 3 0.41 6.3131 9.43634 22.212
62 21 3 0.41 7.49281 10.4269 22.2231
63 21 5 -0.82 7.3191 9.43268 22.212
64 22 3 0.41 9.16045 1.50478 -18.9085
65 22 3 0.41 9.15993 3.09132 -18.5363
66 22 5 -0.82 8.88539 2.41788 -19.2213
67 23 3 0.41 8.25844 1.96864 -11.3118
68 23 3 0.41 8.00763 2.23575 -12.6402
69 23 5 -0.82 7.43785 1.93339 -11.8929
70 24 3 0.41 6.13764 -0.461304 -19.788
71 24 3 0.41 4.99005 -0.771905 -18.6329
72 24 5 -0.82 5.12829 -0.634294 -19.6409
73 25 3 0.41 7.49145 8.06794 -14.5543
74 25 3 0.41 8.77218 8.93206 -14.2889
75 25 5 -0.82 8.42451 8.19347 -14.9018
76 26 3 0.41 3.02965 6.7504 -5.63226
77 26 3 0.41 2.77198 5.22489 -5.97862
78 26 5 -0.82 3.05363 6.10806 -6.40195
79 27 3 0.41 11.7807 9.32372 -9.98662
80 27 3 0.41 11.144 9.17743 -11.3472
81 27 5 -0.82 11.1558 9.85723 -10.6093
82 28 3 0.41 0.727708 2.37848 -10.7119
83 28 3 0.41 1.03869 1.99149 -9.31379
84 28 5 -0.82 0.480164 2.63602 -9.78022
85 29 3 0.41 7.43107 8.90956 13.2322
86 29 3 0.41 7.57621 7.42667 13.855
87 29 5 -0.82 8.13547 8.22465 13.5695
88 30 3 0.41 -0.527631 1.36764 8.22368
89 30 3 0.41 1.04282 1.35643 8.82198
90 30 5 -0.82 0.338357 0.877583 8.24084
91 31 3 0.41 5.64386 6.14153 -17.1931
92 31 3 0.41 7.02708 5.92431 -16.3749
93 31 5 -0.82 6.43249 6.64699 -16.861
94 32 3 0.41 0.0311676 -0.521291 -21.0493
95 32 3 0.41 -0.0802154 -0.732828 -19.4526
96 32 5 -0.82 -0.528857 -0.986533 -20.3077
97 33 3 0.41 7.09019 11.9896 -16.6312
98 33 3 0.41 6.58349 11.7395 -18.1332
99 33 5 -0.82 6.4617 12.332 -17.3365
100 34 3 0.41 0.667748 3.32945 6.8056
101 34 3 0.41 -0.450723 3.66647 7.99759
102 34 5 -0.82 -0.344511 3.36329 7.02926
103 35 3 0.41 3.65394 0.816761 14.4144
104 35 3 0.41 3.76124 2.00425 13.3514
105 35 5 -0.82 4.25455 1.62516 14.1673
106 36 3 0.41 9.738 11.1735 -7.78464
107 36 3 0.41 8.58634 12.3001 -7.55501
108 36 5 -0.82 9.28423 11.7721 -7.06716
109 37 3 0.41 7.37746 -1.39792 21.0104
110 37 3 0.41 8.3628 12.0851 22.1133
111 37 5 -0.82 7.38011 12.1666 21.9157
112 38 3 0.41 0.718847 8.39946 3.95257
113 38 3 0.41 -0.685511 7.75361 4.32632
114 38 5 -0.82 -0.191479 8.64358 4.26015
115 39 3 0.41 8.57115 -1.04985 -20.1134
116 39 3 0.41 8.20202 -0.31625 -18.7606
117 39 5 -0.82 7.79418 -0.562483 -19.6559
118 40 3 0.41 4.71269 10.2547 -19.011
119 40 3 0.41 3.83826 9.57921 -20.0739
120 40 5 -0.82 3.73431 9.98994 -19.1407
121 41 3 0.41 2.79833 6.92796 -12.0061
122 41 3 0.41 3.12849 6.31694 -13.3959
123 41 5 -0.82 2.62922 6.10289 -12.5486
124 42 3 0.41 5.49106 10.1511 12.9931
125 42 3 0.41 6.26472 9.72499 11.7735
126 42 5 -0.82 6.46994 9.99709 12.7295
127 43 3 0.41 10.6024 9.19415 17.0251
128 43 3 0.41 11.8965 8.89787 16.4984
129 43 5 -0.82 11.5455 9.54516 17.1548
130 44 3 0.41 2.22867 11.9058 -21.4114
131 44 3 0.41 1.21479 11.0336 -22.1085
132 44 5 -0.82 2.24057 11.1116 -22.0493
133 45 3 0.41 7.15755 4.7761 1.3122
134 45 3 0.41 7.83059 5.21852 -0.0591791
135 45 5 -0.82 7.06745 5.45188 0.526247
136 46 3 0.41 7.28249 0.641018 20.7576
137 46 3 0.41 8.66446 0.0229667 20.4725
138 46 5 -0.82 7.78194 0.226092 20.0122
139 47 3 0.41 6.93768 7.91723 5.68923
140 47 3 0.41 7.6395 8.8288 4.58594
141 47 5 -0.82 7.64246 8.68343 5.59074
142 48 3 0.41 0.953103 3.91232 22.2725
143 48 3 0.41 1.69628 5.37725 22.0442
144 48 5 -0.82 0.859553 4.85583 21.8962
145 49 3 0.41 6.00349 5.08267 -8.65799
146 49 3 0.41 7.42328 5.65733 -8.07251
147 49 5 -0.82 7.03113 5.07123 -8.74789
148 50 3 0.41 -0.833441 7.05542 16.7312
149 50 3 0.41 -0.204293 8.36889 17.4775
150 50 5 -0.82 -0.244391 7.85581 16.5957
151 51 3 0.41 10.6815 7.14503 11.1053
152 51 3 0.41 11.315 6.985 9.58666
153 51 5 -0.82 11.3615 7.5158 10.4432
154 52 3 0.41 11.6285 -0.195352 -12.775
155 52 3 0.41 12.0041 -0.631793 -14.3396
156 52 5 -0.82 11.7246 -0.961483 -13.3964
157 53 3 0.41 10.5517 8.43539 4.66361
158 53 3 0.41 10.0097 7.85043 6.19733
159 53 5 -0.82 10.6855 7.74339 5.40493
160 54 3 0.41 9.02201 6.13878 12.1435
161 54 3 0.41 10.0834 6.41232 13.3725
162 54 5 -0.82 10.026 6.33482 12.3201
163 55 3 0.41 5.43495 5.77897 6.36673
164 55 3 0.41 5.72973 6.88274 5.254
165 55 5 -0.82 6.03919 6.59364 6.16993
166 56 3 0.41 11.8089 12.371 -2.08842
167 56 3 0.41 10.7465 11.2328 -1.787
168 56 5 -0.82 10.8295 12.1794 -2.04278
169 57 3 0.41 0.442788 3.94417 -22.4381
170 57 3 0.41 2.02967 3.65457 -22.169
171 57 5 -0.82 1.07293 3.27161 -22.0547
172 58 3 0.41 10.0022 9.56618 -21.8574
173 58 3 0.41 10.7065 11.0186 -21.8062
174 58 5 -0.82 10.8892 10.0469 -21.6774
175 59 3 0.41 7.8491 12.2103 11.1015
176 59 3 0.41 8.80091 10.9158 11.1583
177 59 5 -0.82 8.81627 11.9333 10.9449
178 60 3 0.41 4.98866 -0.393381 -7.53191
179 60 3 0.41 3.53143 -0.462115 -7.09468
180 60 5 -0.82 4.06875 -0.468617 -7.92995
181 61 3 0.41 2.63784 -1.13046 20.4416
182 61 3 0.41 3.82571 -0.389094 19.5751
183 61 5 -0.82 3.01794 -1.05482 19.5042
184 62 3 0.41 3.67294 10.6015 1.36855
185 62 3 0.41 5.17814 10.5378 1.00495
186 62 5 -0.82 4.50646 11.1853 1.38513
187 63 3 0.41 9.02239 11.9545 17.2761
188 63 3 0.41 7.84779 12.3954 18.3617
189 63 5 -0.82 8.53269 11.7082 18.1113
190 64 3 0.41 4.91895 6.97145 2.97567
191 64 3 0.41 5.91252 8.07089 3.12699
192 64 5 -0.82 5.30062 7.53869 3.72851
193 65 3 0.41 8.16591 10.5853 -1.77522
194 65 3 0.41 7.73955 8.95243 -2.01801
195 65 5 -0.82 7.4226 9.88799 -1.94869
196 66 3 0.41 8.15084 4.38834 2.98142
197 66 3 0.41 7.15986 3.29333 2.51694
198 66 5 -0.82 8.13516 3.58175 2.36102
199 67 3 0.41 5.15642 3.76864 20.2292
200 67 3 0.41 5.15759 4.29932 18.6319
201 67 5 -0.82 5.32474 3.49053 19.2533
202 68 3 0.41 6.08177 0.487193 19.4217
203 68 3 0.41 5.37465 1.83827 19.2433
204 68 5 -0.82 5.12866 0.809703 19.2195
205 69 3 0.41 4.95772 9.8698 -22.2596
206 69 3 0.41 3.45989 10.0083 -22.2723
207 69 5 -0.82 4.1934 9.30967 -21.9839
208 70 3 0.41 3.4523 1.69975 -19.4739
209 70 3 0.41 3.00249 0.724986 -18.2198
210 70 5 -0.82 2.96724 1.6908 -18.5478
211 71 3 0.41 11.2587 2.54887 7.0206
212 71 3 0.41 9.89903 2.61415 7.90325
213 71 5 -0.82 10.448 1.99819 7.30842
214 72 3 0.41 0.404256 11.3614 20.0537
215 72 3 0.41 -0.668694 12.484 19.7061
216 72 5 -0.82 0.329963 12.2356 19.6038
217 73 3 0.41 10.7375 7.18362 -12.9607
218 73 3 0.41 10.7071 8.75305 -13.2445
219 73 5 -0.82 11.1615 8.05559 -12.6667
220 74 3 0.41 0.0585327 3.90867 0.869633
221 74 3 0.41 -1.21056 3.93077 -0.129443
222 74 5 -0.82 -0.919026 4.18893 0.802738
223 75 3 0.41 8.03997 8.58477 -7.45381
224 75 3 0.41 8.18084 7.07334 -7.09795
225 75 5 -0.82 8.64693 7.79888 -7.67913
226 76 3 0.41 4.78836 4.33727 -14.8772
227 76 3 0.41 6.37883 4.64207 -14.9341
228 76 5 -0.82 5.49489 5.02183 -14.6446
229 77 3 0.41 -0.69992 8.18165 14.601
230 77 3 0.41 12.3837 8.77328 13.435
231 77 5 -0.82 -0.800212 8.16679 13.6221
232 78 3 0.41 3.69462 0.728551 -11.8323
233 78 3 0.41 4.64102 -0.539166 -12.195
234 78 5 -0.82 3.92614 -0.228767 -11.5865
235 79 3 0.41 5.42946 -0.548229 -5.21855
236 79 3 0.41 5.02585 -0.0383614 -3.64903
237 79 5 -0.82 4.7515 -0.615021 -4.45963
238 80 3 0.41 11.5278 7.00822 -21.2916
239 80 3 0.41 11.5997 8.517 -21.9509
240 80 5 -0.82 11.8 7.52532 -22.0742
241 81 3 0.41 10.5381 9.46497 -6.34996
242 81 3 0.41 10.125 8.69015 -7.56598
243 81 5 -0.82 10.8257 9.39458 -7.31021
244 82 3 0.41 0.015845 -0.293817 2.94112
245 82 3 0.41 0.0863376 12.1743 2.39698
246 82 5 -0.82 -0.378381 -1.25218 3.08291
247 83 3 0.41 8.83337 7.78883 8.34221
248 83 3 0.41 8.85166 9.36754 8.19945
249 83 5 -0.82 9.40587 8.54823 7.94387
250 84 3 0.41 3.86991 10.0233 11.8048
251 84 3 0.41 4.48995 10.6464 10.4677
252 84 5 -0.82 4.3578 9.76873 10.9536
253 85 3 0.41 8.76528 4.34818 20.9086
254 85 3 0.41 8.51824 5.07746 22.3025
255 85 5 -0.82 9.0845 4.33652 21.8926
256 86 3 0.41 6.18048 4.99437 -19.7606
257 86 3 0.41 5.44103 3.53709 -19.8986
258 86 5 -0.82 5.57069 4.45076 -20.3468
259 87 3 0.41 1.13425 9.91856 10.9272
260 87 3 0.41 0.319363 9.6501 12.3322
261 87 5 -0.82 1.17534 9.45297 11.8172
262 88 3 0.41 1.55991 2.37658 14.6483
263 88 3 0.41 1.72035 3.58327 13.7083
264 88 5 -0.82 1.55243 2.60813 13.6827
265 89 3 0.41 2.10629 4.56967 -17.5823
266 89 3 0.41 0.721855 4.88376 -16.7663
267 89 5 -0.82 1.62921 4.41272 -16.727
268 90 3 0.41 8.8757 11.9157 -10.866
269 90 3 0.41 10.2799 11.0924 -11.0136
270 90 5 -0.82 9.86435 12.026 -11.0075
271 91 3 0.41 4.1621 8.69263 0.388478
272 91 3 0.41 2.70694 7.94573 0.297566
273 91 5 -0.82 3.17899 8.76414 0.710206
274 92 3 0.41 5.82854 0.606638 4.64695
275 92 3 0.41 4.64037 0.0508186 3.72113
276 92 5 -0.82 5.19017 0.901775 3.91342
277 93 3 0.41 0.195451 1.97346 13.1275
278 93 3 0.41 -1.28377 1.68389 13.5981
279 93 5 -0.82 -0.705123 1.55638 12.7793
280 94 3 0.41 11.8254 3.38252 3.46156
281 94 3 0.41 11.8376 3.70333 1.90386
282 94 5 -0.82 11.1982 3.44465 2.66707
283 95 3 0.41 10.7074 10.9075 16.6492
284 95 3 0.41 10.0117 11.5977 15.3171
285 95 5 -0.82 10.5652 11.8031 16.159
286 96 3 0.41 1.8332 11.6232 9.41819
287 96 3 0.41 0.476766 11.9235 10.1841
288 96 5 -0.82 0.937468 11.1263 9.65161
289 97 3 0.41 3.5938 6.01036 17.3134
290 97 3 0.41 5.05958 6.20054 18.0586
291 97 5 -0.82 4.42726 5.50127 17.6321
292 98 3 0.41 6.12131 -0.00670928 -14.3962
293 98 3 0.41 5.29334 -1.37093 -13.8259
294 98 5 -0.82 5.96639 -0.614094 -13.5816
295 99 3 0.41 0.772977 5.17005 2.7658
296 99 3 0.41 0.95275 6.39949 1.87741
297 99 5 -0.82 1.47956 5.89415 2.57739
298 100 3 0.41 4.13241 10.7077 -7.14963
299 100 3 0.41 4.43114 10.5018 -8.84634
300 100 5 -0.82 3.77936 10.3466 -8.06503
301 101 3 0.41 1.07876 11.4141 -6.97124
302 101 3 0.41 2.28996 11.188 -7.99446
303 101 5 -0.82 1.39928 11.7172 -7.89824
304 102 3 0.41 2.90817 8.57374 -18.5729
305 102 3 0.41 1.82218 7.41581 -18.14
306 102 5 -0.82 2.75565 7.58188 -18.4825
307 103 3 0.41 5.02668 1.8001 9.30657
308 103 3 0.41 5.46634 1.82172 7.76474
309 103 5 -0.82 4.80162 1.39833 8.42268
310 104 3 0.41 3.74316 2.28203 -17.1638
311 104 3 0.41 4.91222 2.00848 -16.0459
312 104 5 -0.82 4.41912 2.7427 -16.5189
313 105 3 0.41 8.58758 6.59385 2.9617
314 105 3 0.41 9.75561 6.18972 3.87464
315 105 5 -0.82 8.86677 5.848 3.60487
316 106 3 0.41 -0.439056 5.56658 -14.546
317 106 3 0.41 0.176999 6.3196 -13.388
318 106 5 -0.82 0.226105 6.32004 -14.4017
319 107 3 0.41 7.42475 7.60128 -10.6459
320 107 3 0.41 7.87107 6.51385 -11.7335
321 107 5 -0.82 8.18896 7.39405 -11.3396
322 108 3 0.41 3.55094 11.2485 -10.4603
323 108 3 0.41 3.01094 12.4548 -11.1519
324 108 5 -0.82 2.66153 11.5939 -10.793
325 109 3 0.41 0.020091 7.7474 -20.2758
326 109 3 0.41 0.0564907 9.20962 -21.0885
327 109 5 -0.82 0.524097 8.27771 -20.9808
328 110 3 0.41 4.78506 9.47438 -15.8947
329 110 3 0.41 3.61781 8.61078 -15.0537
330 110 5 -0.82 3.88616 9.56471 -15.341
331 111 3 0.41 1.46045 9.30156 -13.8573
332 111 3 0.41 1.13305 8.66333 -12.3854
333 111 5 -0.82 1.75205 9.33245 -12.8757
334 112 3 0.41 11.473 -0.341723 -19.9369
335 112 3 0.41 10.276 -1.20133 -19.3477
336 112 5 -0.82 10.7186 -0.2781 -19.2642
337 113 3 0.41 0.574397 -1.17877 17.1471
338 113 3 0.41 1.8879 -0.782599 17.9829
339 113 5 -0.82 1.36226 -0.559203 17.135
340 114 3 0.41 -1.26525 0.29505 -16.6311
341 114 3 0.41 11.519 -0.741751 -16.4144
342 114 5 -0.82 12.1821 -0.138177 -15.9378
343 115 3 0.41 3.14932 1.49131 0.0985442
344 115 3 0.41 2.43956 0.0922174 0.168719
345 115 5 -0.82 3.31508 0.489538 -0.0918993
346 116 3 0.41 -1.03784 1.853 17.821
347 116 3 0.41 -0.599496 2.7413 16.5598
348 116 5 -0.82 -1.39685 2.4677 17.0819
349 117 3 0.41 3.81809 12.2309 -22.5062
350 117 3 0.41 4.6273 -0.796605 -21.7336
351 117 5 -0.82 4.70025 -1.32092 -22.5726
352 118 3 0.41 12.2123 9.88477 -4.49768
353 118 3 0.41 -1.14687 8.5005 -4.20926
354 118 5 -0.82 -0.980276 9.47468 -4.04875
355 119 3 0.41 6.22394 1.76225 -10.6617
356 119 3 0.41 6.40019 1.62443 -9.11804
357 119 5 -0.82 5.77675 1.33626 -9.8658
358 120 3 0.41 1.26184 3.35117 -3.23621
359 120 3 0.41 1.68467 3.08437 -1.75715
360 120 5 -0.82 0.896208 3.4022 -2.28811
361 121 3 0.41 5.96628 2.05843 -13.1458
362 121 3 0.41 4.55275 2.98519 -13.1798
363 121 5 -0.82 5.10864 2.2808 -13.6564
364 122 3 0.41 5.62275 4.35983 4.02733
365 122 3 0.41 6.85881 5.18916 4.64935
366 122 5 -0.82 6.51106 4.24295 4.54532
367 123 3 0.41 -0.952819 1.12838 1.83777
368 123 3 0.41 0.473462 1.69205 1.5762
369 123 5 -0.82 -0.0875644 1.28548 2.33658
370 124 3 0.41 7.30475 0.301302 2.28232
371 124 3 0.41 8.62769 -0.244662 2.90306
372 124 5 -0.82 8.1384 0.662165 2.78562
373 125 3 0.41 11.0542 7.9286 -18.43
374 125 3 0.41 11.8201 8.95707 -19.3244
375 125 5 -0.82 11.8372 7.9807 -19.0535
376 126 3 0.41 -1.35022 3.86999 -15.1672
377 126 3 0.41 12.4282 4.33004 -16.7627
378 126 5 -0.82 -1.24411 4.6016 -15.8921
379 127 3 0.41 2.23735 -0.751574 15.1789
380 127 3 0.41 1.59729 0.338876 14.1798
381 127 5 -0.82 2.46096 -0.239068 14.3413
382 128 3 0.41 4.47443 5.29489 8.20143
383 128 3 0.41 4.97317 4.94993 9.65041
384 128 5 -0.82 4.53528 5.69061 9.14686
385 129 3 0.41 7.29137 0.35647 7.06248
386 129 3 0.41 8.16429 -0.626981 8.02596
387 129 5 -0.82 7.48314 0.126987 8.01694
388 130 3 0.41 5.5978 7.2717 -1.02276
389 130 3 0.41 5.69488 5.86458 -1.34521
390 130 5 -0.82 4.97742 6.58252 -1.39732
391 131 3 0.41 5.90436 7.85391 -9.01173
392 131 3 0.41 5.07316 7.14082 -10.1424
393 131 5 -0.82 5.90965 7.65471 -9.99234
394 132 3 0.41 0.185642 6.00374 -3.24419
395 132 3 0.41 1.66687 6.15552 -3.56333
396 132 5 -0.82 0.759931 6.28632 -4.00772
397 133 3 0.41 -0.412549 10.0903 2.12402
398 133 3 0.41 1.09746 9.8729 1.34742
399 133 5 -0.82 0.550617 10.4408 1.98527
400 134 3 0.41 -0.134662 0.862235 4.80627
401 134 3 0.41 -0.597678 1.96569 5.91234
402 134 5 -0.82 -0.943141 1.18635 5.36851
403 135 3 0.41 -0.201816 6.40411 -18.1841
404 135 3 0.41 -0.716071 7.87877 -18.0703
405 135 5 -0.82 0.0873784 7.34315 -17.8429
406 136 3 0.41 5.68222 -0.132426 16.6401
407 136 3 0.41 4.52888 0.341074 17.6378
408 136 5 -0.82 4.67223 -0.198991 16.7865
409 137 3 0.41 2.56717 1.08385 5.30893
410 137 3 0.41 1.57378 -0.0311133 6.01342
411 137 5 -0.82 2.34968 0.648058 6.17047
412 138 3 0.41 10.1385 8.95544 10.7226
413 138 3 0.41 9.33752 8.89248 12.2166
414 138 5 -0.82 9.47518 9.37149 11.3432
415 139 3 0.41 4.42361 3.70791 22.2305
416 139 3 0.41 4.1239 5.19343 21.6593
417 139 5 -0.82 4.88697 4.53236 21.8285
418 140 3 0.41 6.32054 4.44561 -3.93363
419 140 3 0.41 7.14065 3.91836 -2.70924
420 140 5 -0.82 7.12558 4.70312 -3.34592
421 141 3 0.41 6.88327 5.57694 -21.7456
422 141 3 0.41 7.98284 4.6568 -22.3022
423 141 5 -0.82 7.87939 5.5063 -21.7816
424 142 3 0.41 6.44318 1.14672 0.304325
425 142 3 0.41 7.29219 2.62296 0.465834
426 142 5 -0.82 6.8123 1.97851 -0.198316
427 143 3 0.41 -0.321445 7.6939 9.8785
428 143 3 0.41 -0.469061 7.64472 8.22312
429 143 5 -0.82 -0.0678053 8.18935 8.98866
430 144 3 0.41 0.0640229 9.22554 -9.66065
431 144 3 0.41 0.778359 10.6779 -9.55051
432 144 5 -0.82 0.371071 9.99343 -10.1818
433 145 3 0.41 -0.669175 11.358 -6.67437
434 145 3 0.41 11.8606 10.7471 -7.17817
435 145 5 -0.82 12.4476 11.6352 -7.08439
436 146 3 0.41 4.38923 7.61942 -4.43197
437 146 3 0.41 5.69983 7.64338 -3.52053
438 146 5 -0.82 5.36349 7.56951 -4.4443
439 147 3 0.41 9.82947 1.76281 -2.33414
440 147 3 0.41 10.8631 2.77501 -2.83123
441 147 5 -0.82 9.90566 2.49278 -3.06311
442 148 3 0.41 1.17864 5.003 19.0281
443 148 3 0.41 0.974499 6.346 18.2368
444 148 5 -0.82 0.954983 5.97323 19.1556
445 149 3 0.41 -0.801853 -0.783861 -7.24204
446 149 3 0.41 0.585631 -0.491481 -7.91482
447 149 5 -0.82 -0.181303 0.00099408 -7.49683
448 150 3 0.41 5.37126 8.02558 -13.0008
449 150 3 0.41 5.70863 6.83985 -14.0412
450 150 5 -0.82 6.12365 7.51961 -13.4372
451 151 3 0.41 1.73776 8.33699 8.864
452 151 3 0.41 2.85657 8.56889 7.77647
453 151 5 -0.82 2.62815 7.96522 8.56392
454 152 3 0.41 8.77413 10.1554 5.84371
455 152 3 0.41 8.44928 11.6671 5.78261
456 152 5 -0.82 9.29212 11.0631 5.75471
457 153 3 0.41 2.41325 6.45979 11.8916
458 153 3 0.41 2.55683 8.0311 11.7113
459 153 5 -0.82 3.10941 7.15522 11.6682
460 154 3 0.41 8.87145 1.5123 -16.6508
461 154 3 0.41 9.32793 -0.0763713 -16.9002
462 154 5 -0.82 8.5843 0.644613 -17.0929
463 155 3 0.41 10.3384 -0.563717 22.104
464 155 3 0.41 10.4665 0.91491 22.0957
465 155 5 -0.82 9.72292 0.23616 21.9365
466 156 3 0.41 9.21363 11.8809 -15.9998
467 156 3 0.41 10.6714 11.3719 -16.4857
468 156 5 -0.82 10.0696 12.1247 -16.4774
469 157 3 0.41 9.2536 7.53876 17.7251
470 157 3 0.41 9.2709 8.11557 19.2094
471 157 5 -0.82 9.77619 7.48311 18.5663
472 158 3 0.41 6.90085 10.3406 -6.57171
473 158 3 0.41 6.14339 9.00535 -7.21877
474 158 5 -0.82 6.89543 9.67789 -7.34702
475 159 3 0.41 7.69643 2.97561 -15.906
476 159 3 0.41 6.19168 3.31321 -16.6478
477 159 5 -0.82 7.18043 3.33436 -16.711
478 160 3 0.41 12.1264 4.25111 16.9432
479 160 3 0.41 -1.43169 5.35463 15.9877
480 160 5 -0.82 12.2837 5.22482 16.9373
481 161 3 0.41 3.99427 5.42313 -11.6276
482 161 3 0.41 5.00268 5.02214 -10.5113
483 161 5 -0.82 4.83608 4.9082 -11.4702
484 162 3 0.41 2.36687 6.0319 -1.22508
485 162 3 0.41 2.33198 5.43786 0.133355
486 162 5 -0.82 2.36893 6.37016 -0.26917
487 163 3 0.41 8.79089 0.0426808 -1.27841
488 163 3 0.41 10.2598 -0.289611 -1.54394
489 163 5 -0.82 9.63897 0.507917 -1.53094
490 164 3 0.41 7.48765 11.9485 -4.34828
491 164 3 0.41 8.8836 -1.27306 -4.15974
492 164 5 -0.82 8.04543 12.4724 -3.68312
493 165 3 0.41 4.40467 12.0948 16.7016
494 165 3 0.41 3.34343 10.8889 16.1133
495 165 5 -0.82 4.29031 11.2138 16.1705
496 166 3 0.41 8.12165 0.268049 15.9749
497 166 3 0.41 7.34335 1.01562 17.0975
498 166 5 -0.82 7.35444 0.13327 16.5937
499 167 3 0.41 4.19909 10.6316 -14.2415
500 167 3 0.41 4.51525 10.5657 -12.5894
501 167 5 -0.82 4.39504 11.1958 -13.3875
502 168 3 0.41 4.01524 3.12668 -8.16247
503 168 3 0.41 2.6542 2.50907 -7.58379
504 168 5 -0.82 3.20119 2.57671 -8.45696
505 169 3 0.41 1.16347 9.80829 -5.59039
506 169 3 0.41 -0.0950577 10.3811 -4.89696
507 169 5 -0.82 0.550859 10.6046 -5.68953
508 170 3 0.41 5.02067 0.342833 0.632764
509 170 3 0.41 5.11836 0.102223 2.10489
510 170 5 -0.82 5.73328 0.199768 1.32182
511 171 3 0.41 1.50145 12.0045 5.12966
512 171 3 0.41 0.136293 -1.47641 4.67399
513 171 5 -0.82 0.738631 -1.42378 5.50607
514 172 3 0.41 9.99197 10.6441 21.1004
515 172 3 0.41 10.5523 11.1333 22.5164
516 172 5 -0.82 9.81602 11.3007 21.8441
517 173 3 0.41 12.341 11.5609 4.04014
518 173 3 0.41 -1.292 9.99401 4.57736
519 173 5 -0.82 12.3363 10.9096 4.84291
520 174 3 0.41 6.88991 5.48277 20.2126
521 174 3 0.41 7.45339 5.34861 18.7709
522 174 5 -0.82 7.6184 5.01208 19.7039
523 175 3 0.41 5.82505 12.1808 10.159
524 175 3 0.41 5.67877 12.3647 8.56023
525 175 5 -0.82 5.5373 11.7254 9.29539
526 176 3 0.41 5.39693 11.7401 2.74312
527 176 3 0.41 5.25352 11.3005 4.29861
528 176 5 -0.82 5.428 12.1041 3.71103
529 177 3 0.41 7.85049 12.1444 14.5409
530 177 3 0.41 7.89797 10.918 13.5054
531 177 5 -0.82 8.46015 11.4879 14.09
532 178 3 0.41 11.7558 7.75604 -14.9201
533 178 3 0.41 12.3671 6.42522 -15.7886
534 178 5 -0.82 11.688 7.17039 -15.7532
535 179 3 0.41 3.07328 5.69628 -22.0407
536 179 3 0.41 4.20231 4.76132 -21.6713
537 179 5 -0.82 3.24781 4.67205 -21.9687
538 180 3 0.41 5.58012 6.02393 0.951026
539 180 3 0.41 3.99214 6.27 0.678543
540 180 5 -0.82 4.67338 6.20231 1.41347
541 181 3 0.41 4.34144 7.09933 -7.06722
542 181 3 0.41 4.21679 8.54327 -7.80629
543 181 5 -0.82 4.86647 7.80861 -7.61526
544 182 3 0.41 2.23929 4.417 -13.4531
545 182 3 0.41 2.07482 3.9348 -14.958
546 182 5 -0.82 2.61554 3.7567 -14.1107
547 183 3 0.41 2.39305 6.51844 -15.0811
548 183 3 0.41 3.90225 6.24418 -15.658
549 183 5 -0.82 3.38039 6.7804 -14.9708
550 184 3 0.41 1.18883 1.23723 16.6642
551 184 3 0.41 2.10209 2.45897 16.7237
552 184 5 -0.82 1.20375 2.22076 16.3423
553 185 3 0.41 12.3593 2.24607 -13.7338
554 185 3 0.41 12.2662 1.45129 -15.0651
555 185 5 -0.82 11.898 2.26957 -14.6198
556 186 3 0.41 12.4234 10.7145 -11.5669
557 186 3 0.41 12.4939 11.6503 -12.989
558 186 5 -0.82 -1.14123 10.8159 -12.5059
559 187 3 0.41 8.46938 3.00749 5.00333
560 187 3 0.41 9.44753 2.17303 5.93883
561 187 5 -0.82 9.1071 2.22453 4.96182
562 188 3 0.41 0.757179 1.5568 -21.7606
563 188 3 0.41 1.81054 0.322411 -21.6559
564 188 5 -0.82 0.895825 0.578794 -22.0005
565 189 3 0.41 -1.41593 3.04631 9.92239
566 189 3 0.41 -1.41787 1.93544 10.9316
567 189 5 -0.82 12.4943 2.06364 9.93893
568 190 3 0.41 7.13165 10.6017 9.25851
569 190 3 0.41 7.46278 10.9901 7.68571
570 190 5 -0.82 7.72184 10.3707 8.46054
571 191 3 0.41 5.02807 -0.813759 14.4548
572 191 3 0.41 6.44706 -0.465774 14.9184
573 191 5 -0.82 6.01433 -1.10736 14.2855
574 192 3 0.41 12.3641 9.5958 22.1697
575 192 3 0.41 -0.374184 10.6245 21.9469
576 192 5 -0.82 -1.38349 10.5616 22.0177
577 193 3 0.41 2.84788 -0.708608 12.2267
578 193 3 0.41 3.16547 -0.423584 10.6012
579 193 5 -0.82 3.31323 -0.0733261 11.5368
580 194 3 0.41 3.64593 11.4722 6.82362
581 194 3 0.41 3.97636 10.3697 8.00693
582 194 5 -0.82 3.29261 10.6945 7.3343
583 195 3 0.41 10.4601 4.09814 14.4879
584 195 3 0.41 10.8719 2.78088 13.4633
585 195 5 -0.82 11.0872 3.27333 14.3115
586 196 3 0.41 12.1266 2.15122 -21.9592
587 196 3 0.41 -0.961636 0.859973 -22.0142
588 196 5 -0.82 12.0419 1.17185 -21.8793
589 197 3 0.41 12.4947 8.84672 6.94399
590 197 3 0.41 11.1405 9.03494 7.74847
591 197 5 -0.82 11.9011 9.57432 7.31358
592 198 3 0.41 11.943 1.34326 -10.31
593 198 3 0.41 11.5023 -0.198 -10.6519
594 198 5 -0.82 11.5136 0.732921 -11.0422
595 199 3 0.41 4.0094 1.09871 -14.5986
596 199 3 0.41 2.60165 1.48933 -15.0248
597 199 5 -0.82 3.14849 0.653686 -14.9103
598 200 3 0.41 2.67997 2.73026 8.37547
599 200 3 0.41 2.32485 2.29972 6.8844
600 200 5 -0.82 2.39792 3.14284 7.47033
601 201 3 0.41 6.90043 4.32954 10.9196
602 201 3 0.41 6.7156 3.01306 10.0176
603 201 5 -0.82 6.76804 4.00814 9.93683
604 202 3 0.41 10.9277 2.52288 -17.4526
605 202 3 0.41 10.776 2.92871 -15.8717
606 202 5 -0.82 10.2588 2.88887 -16.7423
607 203 3 0.41 1.71243 4.80777 10.2896
608 203 3 0.41 0.935116 5.16882 11.5951
609 203 5 -0.82 1.58564 4.46802 11.226
610 204 3 0.41 10.2785 5.64679 -19.6461
611 204 3 0.41 9.66662 5.93672 -21.0678
612 204 5 -0.82 10.4984 5.55448 -20.6345
613 205 3 0.41 -0.130693 -0.249429 -11.5362
614 205 3 0.41 -0.734889 -1.13837 -10.3247
615 205 5 -0.82 0.0345495 -1.10648 -11.0111
616 206 3 0.41 11.9462 -0.0237084 5.59822
617 206 3 0.41 10.6693 0.243783 6.50722
618 206 5 -0.82 11.0058 -0.431662 5.80001
619 207 3 0.41 9.56137 5.04926 7.22605
620 207 3 0.41 9.49913 5.06842 5.67922
621 207 5 -0.82 8.94457 4.76964 6.47982
622 208 3 0.41 4.69538 -0.237523 7.39378
623 208 3 0.41 3.62702 -0.416238 6.44856
624 208 5 -0.82 4.49505 -0.872158 6.61226
625 209 3 0.41 -1.28039 4.63109 -11.8219
626 209 3 0.41 -0.473279 3.72129 -12.955
627 209 5 -0.82 -1.09142 4.49869 -12.8101
628 210 3 0.41 7.14997 4.54385 16.1021
629 210 3 0.41 6.97579 6.13385 16.7069
630 210 5 -0.82 7.45649 5.25402 16.7618
631 211 3 0.41 4.46675 4.55612 5.5675
632 211 3 0.41 3.48062 4.1479 6.6873
633 211 5 -0.82 4.28973 4.74135 6.5293
634 212 3 0.41 -1.49551 3.05323 19.7193
635 212 3 0.41 0.00940711 2.81116 19.7878
636 212 5 -0.82 -0.651233 3.56641 19.8699
637 213 3 0.41 1.28053 3.63673 3.53587
638 213 3 0.41 -0.0792921 2.87643 3.13436
639 213 5 -0.82 0.293941 3.69798 3.5737
640 214 3 0.41 9.70916 1.36712 -0.142331
641 214 3 0.41 10.2675 1.00488 1.22839
642 214 5 -0.82 9.95262 1.86316 0.747807
643 215 3 0.41 10.915 8.9804 -16.5278
644 215 3 0.41 9.33263 8.61753 -16.3809
645 215 5 -0.82 10.0375 8.92751 -17.0636
646 216 3 0.41 9.6248 11.72 9.01902
647 216 3 0.41 10.4804 -0.960921 8.73697
648 216 5 -0.82 10.0863 12.1872 8.25679
649 217 3 0.41 8.22588 4.3849 -9.55718
650 217 3 0.41 8.30884 4.36864 -11.1367
651 217 5 -0.82 8.87166 4.14062 -10.3142
652 218 3 0.41 2.56856 2.1256 2.71742
653 218 3 0.41 3.79651 1.92653 3.73197
654 218 5 -0.82 2.81483 2.23119 3.71891
655 219 3 0.41 11.7606 1.83459 -6.80855
656 219 3 0.41 11.4155 2.68649 -5.4158
657 219 5 -0.82 11.2692 1.81818 -5.91906
658 220 3 0.41 11.7494 5.77184 22.9078
659 220 3 0.41 10.8124 5.14282 21.8282
660 220 5 -0.82 11.7873 5.39158 21.9856
661 221 3 0.41 -0.815411 9.52311 -15.5577
662 221 3 0.41 -1.13283 11.105 -15.2759
663 221 5 -0.82 12.465 10.2331 -15.6899
664 222 3 0.41 7.12208 10.4137 -20.2117
665 222 3 0.41 6.99992 9.08999 -19.386
666 222 5 -0.82 6.70099 10.074 -19.3447
667 223 3 0.41 0.261792 10.8213 -1.25475
668 223 3 0.41 -0.565481 10.3533 -2.54208
669 223 5 -0.82 -0.395831 11.2338 -1.96414
670 224 3 0.41 7.53973 5.78512 9.50999
671 224 3 0.41 7.57273 6.02325 7.83569
672 224 5 -0.82 7.81445 6.43861 8.76874
673 225 3 0.41 2.12639 0.749573 -6.14999
674 225 3 0.41 2.98461 -0.0624461 -5.02859
675 225 5 -0.82 2.1987 -0.157094 -5.66883
676 226 3 0.41 -1.15483 10.7774 17.0111
677 226 3 0.41 -1.06898 11.7288 15.7433
678 226 5 -0.82 -0.649846 11.6073 16.671
679 227 3 0.41 3.0548 2.11179 21.9172
680 227 3 0.41 2.33073 2.58605 20.643
681 227 5 -0.82 2.10245 2.17244 21.5565
682 228 3 0.41 1.56267 5.27703 -10.8835
683 228 3 0.41 1.17546 4.53728 -9.6596
684 228 5 -0.82 1.94529 5.11192 -9.98867
685 229 3 0.41 9.81359 3.27591 -22.1562
686 229 3 0.41 9.20118 2.38507 -21.027
687 229 5 -0.82 8.90201 2.85476 -21.8869
688 230 3 0.41 9.82261 9.32174 2.70091
689 230 3 0.41 11.306 9.42732 2.22393
690 230 5 -0.82 10.759 9.05675 3.00249
691 231 3 0.41 -0.716069 11.9702 -3.29204
692 231 3 0.41 -0.585321 -0.936451 -4.60337
693 231 5 -0.82 -1.15117 12.4286 -4.11787
694 232 3 0.41 2.14528 8.40809 -6.75558
695 232 3 0.41 0.914697 7.56562 -7.31387
696 232 5 -0.82 1.50702 8.3801 -7.56535
697 233 3 0.41 10.2648 6.12756 -6.01881
698 233 3 0.41 11.0932 5.51699 -7.2611
699 233 5 -0.82 11.1073 6.24202 -6.54614
700 234 3 0.41 4.5647 3.19255 1.51758
701 234 3 0.41 5.22721 2.20332 2.57867
702 234 5 -0.82 5.38386 3.0462 2.07832
703 235 3 0.41 -0.646688 0.203728 11.1401
704 235 3 0.41 -0.500862 -1.30835 11.7664
705 235 5 -0.82 -0.171963 -0.70088 11.0113
706 236 3 0.41 12.0272 5.69255 -9.82668
707 236 3 0.41 -0.922761 4.57299 -9.57357
708 236 5 -0.82 -1.1745 5.22509 -10.2698
709 237 3 0.41 4.34607 4.32249 12.9974
710 237 3 0.41 3.04406 4.15964 12.1393
711 237 5 -0.82 3.97505 3.77252 12.2264
712 238 3 0.41 11.7234 5.38091 8.67777
713 238 3 0.41 10.3004 4.8855 8.77026
714 238 5 -0.82 10.8362 5.65709 8.35208
715 239 3 0.41 2.07816 0.771647 -2.21812
716 239 3 0.41 0.521837 0.615563 -2.68427
717 239 5 -0.82 1.25781 0.0930674 -2.22818
718 240 3 0.41 3.88758 8.57174 -11.1768
719 240 3 0.41 3.27896 8.9448 -12.5508
720 240 5 -0.82 4.1502 8.6493 -12.1285
721 241 3 0.41 10.5504 11.8854 1.07817
722 241 3 0.41 12.0235 11.2489 0.935895
723 241 5 -0.82 11.5856 12.1567 1.04838
724 242 3 0.41 -0.544581 7.84675 -1.5344
725 242 3 0.41 0.951722 8.32697 -1.6615
726 242 5 -0.82 0.107889 8.46194 -1.0757
727 243 3 0.41 0.529664 7.83415 -14.784
728 243 3 0.41 0.894013 8.56358 -16.1648
729 243 5 -0.82 0.855494 8.76181 -15.1692
730 244 3 0.41 5.56349 1.80198 22.3824
731 244 3 0.41 4.5453 0.580727 22.4984
732 244 5 -0.82 4.62031 1.51577 22.1397
733 245 3 0.41 9.43284 -0.778253 -22.1594
734 245 3 0.41 10.8635 -0.24275 -21.886
735 245 5 -0.82 10.3821 -1.13195 -22.0519
736 246 3 0.41 11.4822 -1.0269 20.4917
737 246 3 0.41 11.0278 11.8258 19.3971
738 246 5 -0.82 11.6089 -1.32145 19.5242
739 247 3 0.41 6.24078 10.5482 17.8481
740 247 3 0.41 5.68224 10.382 16.3513
741 247 5 -0.82 6.3266 9.93694 17.0173
742 248 3 0.41 1.9108 10.6724 3.46978
743 248 3 0.41 3.29114 10.6238 4.2591
744 248 5 -0.82 2.46991 11.1809 4.17322
745 249 3 0.41 9.56179 2.76574 -13.9218
746 249 3 0.41 8.63761 1.58371 -14.6014
747 249 5 -0.82 8.70677 2.62251 -14.4652
748 250 3 0.41 8.39871 7.85649 22.0633
749 250 3 0.41 8.94567 6.72916 20.9828
750 250 5 -0.82 9.13959 7.17963 21.8608
751 251 3 0.41 9.86339 9.4536 14.23
752 251 3 0.41 11.2148 10.3059 14.1778