ITEM: TIMESTEP
40000
ITEM: NUMBER OF ATOMS
1360
ITEM: BOX BOUNDS pp pp pp
-1.5000000000000000e+00 1.2500000000000000e+01
-1.5000000000000000e+00 1.2500000000000000e+01
-2.7500000000000000e+01 2.7500000000000000e+01
ITEM: ATOMS id mol type q x y z
1 1 3 0.41 6.59834 7.74278 9.21876
2 1 3 0.41 5.7557 9.0908 9.18622
3 1 5 -0.82 5.69275 8.10852 9.4317
4 2 3 0.41 5.89488 6.04578 -11.678
5 2 3 0.41 6.10532 6.62658 -10.1186
6 2 5 -0.82 6.07553 6.85927 -11.1255
7 3 3 0.41 10.0449 -0.113045 18.26
8 3 3 0.41 8.44888 0.142563 18.1945
9 3 5 -0.82 9.28015 0.032773 17.6043
10 4 3 0.41 3.08427 0.938565 -17.0232
11 4 3 0.41 2.30196 1.30431 -18.4017
12 4 5 -0.82 2.96315 1.7173 -17.6751
13 5 3 0.41 8.00926 9.20233 -8.10685
14 5 3 0.41 8.09753 9.21382 -6.43571
15 5 5 -0.82 8.46948 8.80431 -7.30265
16 6 3 0.41 1.5281 3.24775 -19.429
17 6 3 0.41 1.15699 4.7357 -19.9389
18 6 5 -0.82 0.93254 4.03719 -19.2121
19 7 3 0.41 12.4032 4.9812 -21.9516
20 7 3 0.41 10.9568 5.53972 -21.8099
21 7 5 -0.82 11.4861 4.66062 -21.7174
22 8 3 0.41 4.50285 7.66051 14.9066
23 8 3 0.41 3.30759 8.57655 14.1194
24 8 5 -0.82 3.65435 7.64439 14.3449
25 9 3 0.41 2.1505 11.4127 -17.5701
26 9 3 0.41 2.54618 10.567 -16.1908
27 9 5 -0.82 1.98037 10.5223 -17.032
28 10 3 0.41 11.7209 1.15025 4.77378
29 10 3 0.41 10.6597 0.331504 3.90764
30 10 5 -0.82 11.2279 1.16484 3.90542
31 11 3 0.41 2.42655 6.27376 -8.7434
32 11 3 0.41 3.32403 6.67563 -7.55269
33 11 5 -0.82 3.3781 6.55103 -8.54232
34 12 3 0.41 6.73639 10.9335 -16.8681
35 12 3 0.41 5.25979 10.3014 -16.5223
36 12 5 -0.82 5.73838 11.1531 -16.7317
37 13 3 0.41 4.75285 7.12727 3.2549
38 13 3 0.41 6.11988 7.98691 3.36309
39 13 5 -0.82 5.3453 7.63193 3.91543
40 14 3 0.41 6.73793 2.77285 -9.09865
41 14 3 0.41 6.8894 3.44509 -10.5188
42 14 5 -0.82 6.46804 3.59913 -9.63845
43 15 3 0.41 11.7854 0.0529706 10.9671
44 15 3 0.41 11.2317 -0.954932 9.98596
45 15 5 -0.82 11.6921 -0.059173 9.97742
46 16 3 0.41 -0.603902 -1.07841 9.1113
47 16 3 0.41 0.261286 12.3973 7.92926
48 16 5 -0.82 -0.59509 12.127 8.44284
49 17 3 0.41 -0.922213 9.77031 22.2587
50 17 3 0.41 -0.89237 10.224 20.7053
51 17 5 -0.82 -1.46167 9.7556 21.4056
52 18 3 0.41 3.83509 1.81621 -10.8158
53 18 3 0.41 4.28904 1.22902 -9.35479
54 18 5 -0.82 4.54311 1.20117 -10.3468
55 19 3 0.41 2.0006 0.86941 4.40437
56 19 3 0.41 3.08746 1.37123 5.44468
57 19 5 -0.82 2.71164 0.523531 5.07526
58 20 3 0.41 11.2002 9.17982 -7.43165
59 20 3 0.41 10.0618 8.6774 -8.3475
60 20 5 -0.82 11.037 8.68104 -8.28274
61 21 3 0.41 4.18858 11.8799 21.7576
62 21 3 0.41 2.99432 11.346 22.5036
63 21 5 -0.82 3.76845 11.0005 21.9476
64 22 3 0.41 8.47115 11.8193 -18.5851
65 22 3 0.41 8.54682 -1.24545 -19.8923
66 22 5 -0.82 8.32039 11.8542 -19.5949
67 23 3 0.41 6.30451 3.79285 -12.6444
68 23 3 0.41 5.08092 4.14099 -11.7501
69 23 5 -0.82 5.71407 4.56388 -12.4335
70 24 3 0.41 4.04877 -1.04551 -21.8801
71 24 3 0.41 2.51322 -0.766395 -22.1084
72 24 5 -0.82 3.3689 -0.269867 -22.0464
73 25 3 0.41 3.48579 7.99274 -12.3783
74 25 3 0.41 3.86558 7.38856 -13.9395
75 25 5 -0.82 3.27013 8.0093 -13.4029
76 26 3 0.41 -0.210329 6.045 -5.9925
77 26 3 0.41 0.414152 5.64485 -4.67906
78 26 5 -0.82 0.355287 6.48993 -5.28215
79 27 3 0.41 8.60106 11.0968 -12.4046
80 27 3 0.41 8.49497 11.3782 -10.7861
81 27 5 -0.82 8.04319 11.5333 -11.6552
82 28 3 0.41 10.0673 3.56393 -10.3485
83 28 3 0.41 11.2222 3.13003 -11.1605
84 28 5 -0.82 10.2256 3.14218 -11.2386
85 29 3 0.41 5.20759 10.5873 15.8596
86 29 3 0.41 5.03218 9.29186 16.7323
87 29 5 -0.82 5.13245 10.2613 16.8092
88 30 3 0.41 11.82 1.55186 9.19089
89 30 3 0.41 11.068 2.52581 8.06635
90 30 5 -0.82 11.9434 2.03481 8.30064
91 31 3 0.41 4.3425 6.78287 -17.5759
92 31 3 0.41 5.83723 6.85424 -18.2327
93 31 5 -0.82 4.89183 6.70933 -18.4318
94 32 3 0.41 9.02509 0.661927 -18.8226
95 32 3 0.41 10.6174 0.34191 -19.1493
96 32 5 -0.82 9.62371 0.238133 -19.5386
97 33 3 0.41 0.592904 0.390748 -19.6111
98 33 3 0.41 1.46978 1.44387 -20.4522
99 33 5 -0.82 1.31486 1.07995 -19.5412
100 34 3 0.41 11.24 6.82251 4.46068
101 34 3 0.41 10.4245 5.42231 4.92478
102 34 5 -0.82 10.6573 6.37486 5.14043
103 35 3 0.41 5.32754 4.36774 13.2831
104 35 3 0.41 4.24676 3.18021 13.423
105 35 5 -0.82 4.31883 4.20142 13.2556
106 36 3 0.41 6.23549 9.68276 -4.80185
107 36 3 0.41 7.71903 9.57706 -4.19233
108 36 5 -0.82 7.20914 9.85221 -5.04916
109 37 3 0.41 3.56848 -0.340548 21.7496
110 37 3 0.41 2.57127 0.215656 20.7878
111 37 5 -0.82 2.5948 -0.108598 21.7459
112 38 3 0.41 -1.02638 9.88299 2.85047
113 38 3 0.41 0.274033 9.54869 2.05996
114 38 5 -0.82 -0.0683394 9.64848 3.04579
115 39 3 0.41 5.57989 2.00795 -18.8878
116 39 3 0.41 6.65215 1.34308 -19.8769
117 39 5 -0.82 6.07781 1.09789 -19.1034
118 40 3 0.41 2.57336 -0.579086 -19.2286
119 40 3 0.41 3.81152 12.2778 -19.495
120 40 5 -0.82 2.81671 12.4675 -19.1949
121 41 3 0.41 0.353352 5.14649 -8.96451
122 41 3 0.41 1.27543 5.62244 -10.0653
123 41 5 -0.82 0.984767 5.89163 -9.12276
124 42 3 0.41 5.77605 -0.788001 12.7096
125 42 3 0.41 7.18314 -1.27235 13.268
126 42 5 -0.82 6.69626 -1.02789 12.3805
127 43 3 0.41 10.7666 9.9539 16.3213
128 43 3 0.41 9.42653 10.6369 17.0171
129 43 5 -0.82 10.4213 10.4508 17.1406
130 44 3 0.41 -0.968542 -1.45735 -19.2273
131 44 3 0.41 0.317146 -1.40482 -18.3626
132 44 5 -0.82 0.0652031 -1.42814 -19.3697
133 45 3 0.41 6.97306 6.1492 -0.668361
134 45 3 0.41 6.60634 7.23752 0.517162
135 45 5 -0.82 6.32952 6.96731 -0.426569
136 46 3 0.41 5.64776 2.73208 17.6114
137 46 3 0.41 4.49829 3.76757 18.1674
138 46 5 -0.82 5.29067 3.16312 18.4632
139 47 3 0.41 7.00168 10.8115 6.79073
140 47 3 0.41 6.29078 10.6844 8.19714
141 47 5 -0.82 6.84308 10.1512 7.54069
142 48 3 0.41 -0.792657 6.74202 22.9246
143 48 3 0.41 -0.534395 5.97991 21.4329
144 48 5 -0.82 -0.775823 6.87772 21.9145
145 49 3 0.41 6.35943 6.5733 -7.72433
146 49 3 0.41 6.553 5.11404 -8.59249
147 49 5 -0.82 6.56334 6.13791 -8.65057
148 50 3 0.41 11.4208 8.18499 15.7405
149 50 3 0.41 11.4626 6.66283 16.1055
150 50 5 -0.82 11.1298 7.53008 16.5343
151 51 3 0.41 -0.783367 6.69618 14.1786
152 51 3 0.41 12.1112 7.09036 13.0263
153 51 5 -0.82 12.3563 6.39218 13.7208
154 52 3 0.41 6.8856 -0.706649 -11.2903
155 52 3 0.41 6.30497 0.585287 -10.5601
156 52 5 -0.82 7.14212 0.220604 -11.0873
157 53 3 0.41 10.4157 8.75807 5.0559
158 53 3 0.41 9.51908 9.96453 5.74304
159 53 5 -0.82 9.45435 8.97621 5.49819
160 54 3 0.41 9.42312 6.59426 12.4587
161 54 3 0.41 9.41358 6.70204 13.998
162 54 5 -0.82 9.36027 7.30085 13.1775
163 55 3 0.41 6.26581 5.82614 6.86428
164 55 3 0.41 5.18005 4.76904 6.08723
165 55 5 -0.82 5.3006 5.5563 6.71174
166 56 3 0.41 10.4315 11.304 -1.62136
167 56 3 0.41 9.74075 -1.48363 -0.906619
168 56 5 -0.82 10.6208 12.192 -1.15799
169 57 3 0.41 12.4321 1.57621 -21.7751
170 57 3 0.41 12.2236 3.14727 -21.7479
171 57 5 -0.82 -1.04445 2.4421 -21.9362
172 58 3 0.41 10.0955 9.0384 -20.1632
173 58 3 0.41 8.998 10.3097 -20.2083
174 58 5 -0.82 9.69096 9.74892 -20.7579
175 59 3 0.41 8.31446 11.1576 11.0138
176 59 3 0.41 6.98674 12.0114 10.7937
177 59 5 -0.82 7.71984 11.5071 10.2574
178 60 3 0.41 0.346774 -0.695556 -8.42027
179 60 3 0.41 0.809855 0.658673 -7.72692
180 60 5 -0.82 -0.00850897 0.100377 -7.95969
181 61 3 0.41 1.15453 1.94685 17.8408
182 61 3 0.41 1.67897 3.25992 18.2465
183 61 5 -0.82 1.52146 2.79277 17.3926
184 62 3 0.41 5.72118 10.2343 0.872063
185 62 3 0.41 6.3938 10.227 2.32749
186 62 5 -0.82 5.53392 10.4011 1.85098
187 63 3 0.41 6.86131 -0.577806 19.3297
188 63 3 0.41 6.50691 0.979511 19.5545
189 63 5 -0.82 7.20945 0.356431 19.1687
190 64 3 0.41 8.12146 9.6845 4.36914
191 64 3 0.41 6.84242 10.6344 4.2573
192 64 5 -0.82 7.40609 9.97342 3.74623
193 65 3 0.41 7.3357 -1.14866 -1.54069
194 65 3 0.41 7.75633 11.9747 -0.362475
195 65 5 -0.82 7.7135 -1.03719 -0.598129
196 66 3 0.41 11.264 5.48859 2.20585
197 66 3 0.41 9.80457 5.45911 2.84991
198 66 5 -0.82 10.4153 4.95766 2.17162
199 67 3 0.41 5.86469 7.17714 19.7279
200 67 3 0.41 4.76261 7.26667 20.8538
201 67 5 -0.82 4.98948 6.71291 20.0137
202 68 3 0.41 3.99347 4.76277 15.156
203 68 3 0.41 3.49418 4.73536 16.6913
204 68 5 -0.82 3.648 4.13201 15.8714
205 69 3 0.41 -0.134849 10.3276 -20.9494
206 69 3 0.41 -0.124572 11.5914 -22.1018
207 69 5 -0.82 -0.654703 10.7724 -21.6964
208 70 3 0.41 -1.30683 5.42082 -19.9278
209 70 3 0.41 11.7765 5.39691 -18.5311
210 70 5 -0.82 12.4766 5.91373 -19.0642
211 71 3 0.41 9.1134 3.71325 7.86827
212 71 3 0.41 9.03223 2.14745 7.42907
213 71 5 -0.82 9.67706 2.91863 7.51154
214 72 3 0.41 0.233312 0.839095 19.6544
215 72 3 0.41 0.34255 -0.344271 18.5611
216 72 5 -0.82 0.554313 0.634617 18.6605
217 73 3 0.41 6.36385 8.38337 -14.146
218 73 3 0.41 7.33585 7.60936 -13.0535
219 73 5 -0.82 7.1036 8.51819 -13.4598
220 74 3 0.41 -1.30616 4.85655 -0.93701
221 74 3 0.41 -0.394774 5.61508 0.193507
222 74 5 -0.82 -1.12579 4.97007 0.0752858
223 75 3 0.41 3.56809 6.13396 -4.75128
224 75 3 0.41 4.22349 5.2914 -5.86844
225 75 5 -0.82 3.43807 5.94486 -5.74891
226 76 3 0.41 5.08612 5.65925 -13.4979
227 76 3 0.41 4.89423 5.24981 -15.1622
228 76 5 -0.82 4.83335 5.97087 -14.4328
229 77 3 0.41 12.1295 9.95682 13.976
230 77 3 0.41 10.7429 9.05609 13.9529
231 77 5 -0.82 11.4796 9.40028 14.5474
232 78 3 0.41 -0.554119 0.899932 -11.4974
233 78 3 0.41 0.745966 0.353436 -10.6401
234 78 5 -0.82 0.196934 1.17945 -10.8494
235 79 3 0.41 3.51607 12.3719 -6.32319
236 79 3 0.41 2.7014 11.4058 -7.39142
237 79 5 -0.82 3.10371 12.2819 -7.28648
238 80 3 0.41 8.89852 5.32899 -22.2473
239 80 3 0.41 8.56227 3.83629 -22.2989
240 80 5 -0.82 8.1205 4.72026 -22.0838
241 81 3 0.41 7.64805 12.3558 -7.91451
242 81 3 0.41 7.19307 11.613 -9.24933
243 81 5 -0.82 8.03295 12.0636 -8.83808
244 82 3 0.41 0.608507 10.7498 4.07964
245 82 3 0.41 0.940406 12.2007 3.56937
246 82 5 -0.82 0.731482 11.7127 4.41742
247 83 3 0.41 9.27669 7.87409 8.51849
248 83 3 0.41 8.12139 8.97925 8.35569
249 83 5 -0.82 8.44295 8.23114 8.97506
250 84 3 0.41 3.29925 9.78292 11.9942
251 84 3 0.41 4.20103 9.94079 10.6627
252 84 5 -0.82 3.48008 9.40011 11.0699
253 85 3 0.41 4.02958 4.44212 21.9248
254 85 3 0.41 4.9036 5.18761 20.9022
255 85 5 -0.82 4.90149 4.33846 21.4169
256 86 3 0.41 2.84261 4.34263 -16.5561
257 86 3 0.41 1.59191 4.30347 -17.6136
258 86 5 -0.82 1.8394 4.48458 -16.6659
259 87 3 0.41 0.607563 9.76919 12.8407
260 87 3 0.41 0.959614 8.52177 13.6888
261 87 5 -0.82 1.11444 8.88093 12.7643
262 88 3 0.41 -0.894569 3.02722 9.69601
263 88 3 0.41 0.474121 3.99561 9.49021
264 88 5 -0.82 0.11985 3.04382 9.64561
265 89 3 0.41 1.06052 9.07779 -15.8922
266 89 3 0.41 0.5451 7.87813 -15.1221
267 89 5 -0.82 0.281155 8.84468 -15.2529
268 90 3 0.41 4.71217 12.0235 -10.2286
269 90 3 0.41 4.43755 -1.2162 -8.88764
270 90 5 -0.82 5.15893 -1.37895 -9.56322
271 91 3 0.41 4.72206 11.7265 -1.31158
272 91 3 0.41 4.73874 -0.843382 -0.682755
273 91 5 -0.82 4.06214 12.4686 -1.08209
274 92 3 0.41 6.15513 -0.364141 7.13168
275 92 3 0.41 5.65909 0.552794 6.04786
276 92 5 -0.82 5.34902 0.138361 6.95337
277 93 3 0.41 11.3267 0.354255 13.1317
278 93 3 0.41 -1.35857 -0.579329 12.5306
279 93 5 -0.82 12.1943 0.37492 12.5879
280 94 3 0.41 -0.453634 2.95624 3.70514
281 94 3 0.41 -0.840113 4.2927 2.9497
282 94 5 -0.82 -1.15065 3.70451 3.65732
283 95 3 0.41 7.33227 1.63801 15.8953
284 95 3 0.41 7.36377 1.61001 17.4332
285 95 5 -0.82 6.70901 1.73362 16.6863
286 96 3 0.41 2.05622 9.72142 10.1908
287 96 3 0.41 1.67526 11.1538 9.90765
288 96 5 -0.82 1.5561 10.2577 9.47593
289 97 3 0.41 1.70962 7.52391 18.5425
290 97 3 0.41 0.457396 7.07383 19.4068
291 97 5 -0.82 1.43872 7.14254 19.4512
292 98 3 0.41 4.15611 -0.114498 -11.5061
293 98 3 0.41 3.22238 -0.245968 -12.7026
294 98 5 -0.82 4.17139 -0.425008 -12.4275
295 99 3 0.41 0.872685 8.51128 0.082326
296 99 3 0.41 0.86234 10.076 -0.0668901
297 99 5 -0.82 1.18323 9.34747 0.579904
298 100 3 0.41 -0.413038 10.2502 -9.4872
299 100 3 0.41 -0.475305 11.4165 -8.3953
300 100 5 -0.82 -0.247044 11.2148 -9.33585
301 101 3 0.41 9.68788 -1.31717 -8.41753
302 101 3 0.41 10.8117 11.9462 -7.51106
303 101 5 -0.82 10.6989 -1.31881 -8.20156
304 102 3 0.41 -0.449376 10.1117 -18.8337
305 102 3 0.41 1.05109 9.89863 -18.4228
306 102 5 -0.82 0.367964 9.57305 -19.069
307 103 3 0.41 9.06971 1.52747 9.59249
308 103 3 0.41 7.41836 1.41218 9.59227
309 103 5 -0.82 8.25413 1.067 9.17769
310 104 3 0.41 -1.07697 4.95351 -15.3664
311 104 3 0.41 0.0913647 5.24681 -16.3807
312 104 5 -0.82 -0.90004 4.97756 -16.3598
313 105 3 0.41 10.7885 7.40132 2.59508
314 105 3 0.41 10.1273 8.81024 2.71087
315 105 5 -0.82 9.90903 7.84254 2.58135
316 106 3 0.41 11.6886 7.70836 -9.48368
317 106 3 0.41 -0.977302 7.50038 -10.4609
318 106 5 -0.82 12.1188 7.12862 -10.2134
319 107 3 0.41 4.6566 7.88099 -10.8668
320 107 3 0.41 3.44385 7.39458 -9.88376
321 107 5 -0.82 3.63812 7.90491 -10.7479
322 108 3 0.41 12.2251 -1.18161 -11.2747
323 108 3 0.41 -0.473107 11.9941 -10.9013
324 108 5 -0.82 -0.926672 12.4333 -11.6842
325 109 3 0.41 11.362 10.93 -17.4668
326 109 3 0.41 11.706 9.83854 -18.5946
327 109 5 -0.82 12.1213 10.5784 -18.001
328 110 3 0.41 -0.104384 10.82 -15.2279
329 110 3 0.41 12.4136 11.5024 -15.3365
330 110 5 -0.82 -0.653586 11.5917 -14.9065
331 111 3 0.41 -0.165676 9.36441 -13.5071
332 111 3 0.41 -0.0493859 9.16295 -11.8958
333 111 5 -0.82 -0.469279 9.77041 -12.6317
334 112 3 0.41 8.01082 1.75323 -16.7373
335 112 3 0.41 9.54879 2.08198 -16.9241
336 112 5 -0.82 8.82372 1.41378 -17.237
337 113 3 0.41 0.119316 -0.496516 14.0465
338 113 3 0.41 1.26748 0.0486835 14.9784
339 113 5 -0.82 0.492645 0.358712 14.3471
340 114 3 0.41 8.68735 0.550793 -14.0455
341 114 3 0.41 9.68647 1.7226 -14.4078
342 114 5 -0.82 9.53381 0.990838 -13.734
343 115 3 0.41 1.76858 3.26047 3.88465
344 115 3 0.41 1.29469 3.03308 5.42902
345 115 5 -0.82 1.96382 3.54766 4.864
346 116 3 0.41 12.0127 0.81522 17.5517
347 116 3 0.41 -0.869102 1.11744 16.4462
348 116 5 -0.82 12.346 0.473907 16.6421
349 117 3 0.41 0.573654 -0.871802 -20.9395
350 117 3 0.41 0.748177 0.132449 -22.2981
351 117 5 -0.82 0.676854 -0.855976 -22.0029
352 118 3 0.41 10.0586 8.5623 -4.30491
353 118 3 0.41 10.2399 7.77374 -5.84045
354 118 5 -0.82 10.5863 8.43546 -5.1455
355 119 3 0.41 1.98136 2.97858 -10.0024
356 119 3 0.41 2.19612 2.98308 -8.38184
357 119 5 -0.82 1.68342 2.54416 -9.12176
358 120 3 0.41 2.06431 4.03579 2.09686
359 120 3 0.41 0.941169 3.59239 1.01586
360 120 5 -0.82 1.14834 3.69779 1.99984
361 121 3 0.41 2.27427 4.01813 -15.0051
362 121 3 0.41 3.72295 3.21603 -14.6245
363 121 5 -0.82 2.78649 3.44171 -14.3056
364 122 3 0.41 5.80064 3.61902 2.90727
365 122 3 0.41 6.07945 3.37745 1.39078
366 122 5 -0.82 6.19015 2.91634 2.29068
367 123 3 0.41 0.0529372 1.49236 6.52638
368 123 3 0.41 -0.173993 0.915722 4.98943
369 123 5 -0.82 -0.674549 1.22929 5.80211
370 124 3 0.41 7.02217 2.72154 -0.498859
371 124 3 0.41 6.95688 4.16849 0.186798
372 124 5 -0.82 6.38569 3.5147 -0.352341
373 125 3 0.41 9.18896 7.55898 -21.9243
374 125 3 0.41 10.8292 7.55214 -21.8431
375 125 5 -0.82 10.0077 6.95573 -22.0523
376 126 3 0.41 9.54617 5.52625 -18.1007
377 126 3 0.41 10.1355 6.21323 -16.6901
378 126 5 -0.82 10.2975 5.50846 -17.4165
379 127 3 0.41 0.580576 2.74923 11.3738
380 127 3 0.41 -0.0132164 1.45418 12.0461
381 127 5 -0.82 0.30679 2.40516 12.2953
382 128 3 0.41 4.20188 5.69465 8.01723
383 128 3 0.41 4.24141 4.78626 9.24509
384 128 5 -0.82 3.79191 5.63107 8.96198
385 129 3 0.41 7.52244 12.2262 8.87686
386 129 3 0.41 7.93228 -0.373232 8.37747
387 129 5 -0.82 7.61584 -1.26939 7.99208
388 130 3 0.41 4.93577 7.64134 -0.340092
389 130 3 0.41 3.85504 7.64166 0.653185
390 130 5 -0.82 4.13299 8.21649 -0.137435
391 131 3 0.41 1.71236 8.12748 -11.3242
392 131 3 0.41 0.919338 8.01039 -9.89452
393 131 5 -0.82 0.836701 8.30384 -10.8815
394 132 3 0.41 12.0381 6.57043 -3.27222
395 132 3 0.41 11.2814 7.78411 -2.60055
396 132 5 -0.82 12.2062 7.49249 -2.96428
397 133 3 0.41 2.09066 10.7777 2.02876
398 133 3 0.41 1.89593 11.7089 0.678594
399 133 5 -0.82 2.15542 11.7524 1.67649
400 134 3 0.41 10.3513 3.67418 5.78577
401 134 3 0.41 8.99011 3.5352 4.86275
402 134 5 -0.82 9.98729 3.70829 4.8606
403 135 3 0.41 9.46661 10.401 -16.8187
404 135 3 0.41 9.14907 9.01458 -17.8446
405 135 5 -0.82 8.80875 9.9008 -17.4777
406 136 3 0.41 1.82254 1.38154 13.6207
407 136 3 0.41 2.49408 2.72229 14.3349
408 136 5 -0.82 2.66754 1.93305 13.7187
409 137 3 0.41 0.875827 2.36154 8.39618
410 137 3 0.41 2.16625 2.29927 7.32175
411 137 5 -0.82 1.13457 2.23046 7.42239
412 138 3 0.41 8.63405 9.07514 11.5774
413 138 3 0.41 9.28273 9.11366 10.2433
414 138 5 -0.82 9.47975 9.50235 11.1209
415 139 3 0.41 2.24449 6.31487 20.8953
416 139 3 0.41 1.70298 5.1863 21.8587
417 139 5 -0.82 2.49746 5.85701 21.769
418 140 3 0.41 2.64154 3.04221 -3.23785
419 140 3 0.41 3.38402 1.64211 -3.66723
420 140 5 -0.82 3.5401 2.54979 -3.33457
421 141 3 0.41 5.17681 9.65128 -21.2691
422 141 3 0.41 5.65602 8.28244 -21.949
423 141 5 -0.82 4.82986 8.79184 -21.636
424 142 3 0.41 9.07817 5.04785 -1.28627
425 142 3 0.41 10.1553 4.34157 -2.28112
426 142 5 -0.82 9.16902 4.30215 -1.98314
427 143 3 0.41 -0.16491 7.36412 7.66077
428 143 3 0.41 0.664175 7.50013 9.02579
429 143 5 -0.82 -0.179865 7.84239 8.55025
430 144 3 0.41 10.9629 11.2965 -9.65719
431 144 3 0.41 10.1964 10.1761 -10.3031
432 144 5 -0.82 10.6137 11.0541 -10.5712
433 145 3 0.41 11.3386 11.247 -5.35904
434 145 3 0.41 10.2567 10.0938 -5.58108
435 145 5 -0.82 10.4136 11.0661 -5.79572
436 146 3 0.41 2.86931 6.69893 -2.68112
437 146 3 0.41 1.83441 7.92246 -2.41344
438 146 5 -0.82 1.91297 6.93283 -2.43518
439 147 3 0.41 5.56639 1.40209 -3.81957
440 147 3 0.41 6.78512 1.43881 -4.78471
441 147 5 -0.82 5.79803 1.19557 -4.77324
442 148 3 0.41 12.0763 7.7224 18.261
443 148 3 0.41 -0.480139 8.46088 18.1743
444 148 5 -0.82 -1.03724 7.84913 18.7326
445 149 3 0.41 9.0297 1.44228 -5.55209
446 149 3 0.41 10.2658 0.797654 -6.40138
447 149 5 -0.82 9.34279 1.14285 -6.46529
448 150 3 0.41 3.96504 8.71007 -18.0961
449 150 3 0.41 3.63273 10.2684 -18.6541
450 150 5 -0.82 4.32711 9.52317 -18.5689
451 151 3 0.41 2.67882 9.27902 7.61618
452 151 3 0.41 3.91672 8.1056 7.34873
453 151 5 -0.82 3.11435 8.40079 7.97392
454 152 3 0.41 8.95135 12.0785 5.3
455 152 3 0.41 8.77128 11.8541 6.88221
456 152 5 -0.82 9.37875 11.5759 6.09688
457 153 3 0.41 1.44631 8.06031 11.5163
458 153 3 0.41 0.998487 6.59416 10.9371
459 153 5 -0.82 1.56761 7.40474 10.6929
460 154 3 0.41 5.98396 0.496913 -17.5807
461 154 3 0.41 5.87142 -0.993117 -16.8297
462 154 5 -0.82 5.96373 -0.00223873 -16.7034
463 155 3 0.41 5.19443 2.70631 21.1724
464 155 3 0.41 6.54385 2.08121 21.6478
465 155 5 -0.82 5.71305 1.82547 21.1553
466 156 3 0.41 6.32125 12.4774 -19.2487
467 156 3 0.41 5.26055 11.5641 -18.3314
468 156 5 -0.82 5.40852 12.1134 -19.1684
469 157 3 0.41 7.74057 10.6167 18.817
470 157 3 0.41 7.51229 10.3546 20.4278
471 157 5 -0.82 7.93651 9.95778 19.5928
472 158 3 0.41 4.02299 8.71602 -7.10958
473 158 3 0.41 5.50841 8.17374 -6.9137
474 158 5 -0.82 4.99883 8.85403 -7.41529
475 159 3 0.41 7.27869 3.67701 -15.6487
476 159 3 0.41 6.34814 2.5255 -15.1485
477 159 5 -0.82 6.95421 2.76388 -15.9059
478 160 3 0.41 -0.745624 5.08717 15.7219
479 160 3 0.41 11.8649 4.57422 15.3996
480 160 5 -0.82 12.4418 4.73964 16.2189
481 161 3 0.41 1.83278 1.67619 -11.8947
482 161 3 0.41 2.66513 2.61639 -12.7986
483 161 5 -0.82 2.64221 2.26596 -11.8404
484 162 3 0.41 1.57077 6.23128 0.694944
485 162 3 0.41 1.33382 6.66407 -0.838846
486 162 5 -0.82 0.871771 6.68241 0.0730496
487 163 3 0.41 6.81164 0.944988 -1.25352
488 163 3 0.41 5.77147 0.0951377 -2.19315
489 163 5 -0.82 5.99452 1.04484 -1.89105
490 164 3 0.41 7.35147 12.3568 -3.469
491 164 3 0.41 5.76278 12.4227 -3.66763
492 164 5 -0.82 6.45556 12.3593 -2.94835
493 165 3 0.41 2.64925 -1.43195 16.4056
494 165 3 0.41 3.16129 0.0165484 15.8988
495 165 5 -0.82 2.61377 -0.802683 15.5773
496 166 3 0.41 7.0463 4.28482 15.8057
497 166 3 0.41 7.8585 5.37399 16.4857
498 166 5 -0.82 6.96922 4.97618 16.5535
499 167 3 0.41 4.39043 0.0831615 -15.9497
500 167 3 0.41 3.3625 -1.03516 -15.3787
501 167 5 -0.82 3.39502 -0.114012 -15.7733
502 168 3 0.41 0.0700335 3.26849 -6.8237
503 168 3 0.41 12.4032 3.40398 -7.0742
504 168 5 -0.82 -0.756747 2.98011 -7.35767
505 169 3 0.41 -0.636265 10.7239 -6.10989
506 169 3 0.41 -0.648064 12.3172 -6.21898
507 169 5 -0.82 -0.780913 11.4852 -6.77819
508 170 3 0.41 7.59214 -0.492494 0.938893
509 170 3 0.41 6.21419 -0.480536 1.82404
510 170 5 -0.82 7.21902 -0.328943 1.88461
511 171 3 0.41 2.3454 12.2452 7.21857
512 171 3 0.41 2.08255 -0.25321 6.72001
513 171 5 -0.82 1.79914 -0.90854 7.42523
514 172 3 0.41 5.72824 0.06627 21.5238
515 172 3 0.41 6.25461 -0.962069 22.6152
516 172 5 -0.82 5.37766 -0.691356 22.1394
517 173 3 0.41 11.671 11.3576 4.6015
518 173 3 0.41 -0.791818 11.8389 4.8027
519 173 5 -0.82 12.3034 11.8143 5.27018
520 174 3 0.41 7.43824 8.40747 19.4229
521 174 3 0.41 8.17197 7.13595 18.9708
522 174 5 -0.82 7.27919 7.5902 18.8302
523 175 3 0.41 5.13293 -0.0260641 8.74092
524 175 3 0.41 3.85966 -0.0743505 9.83513
525 175 5 -0.82 4.79404 -0.380914 9.61205
526 176 3 0.41 9.55916 -1.36138 3.27735
527 176 3 0.41 8.33709 -0.420006 3.35359
528 176 5 -0.82 9.21319 -0.608719 3.84992
529 177 3 0.41 7.32263 12.4944 15.1951
530 177 3 0.41 8.35997 11.5347 14.3559
531 177 5 -0.82 8.05866 -1.48839 14.4951
532 178 3 0.41 9.62376 9.13254 -12.2221
533 178 3 0.41 10.6681 8.19859 -12.99
534 178 5 -0.82 10.3057 9.14797 -13.0135
535 179 3 0.41 0.451218 6.42137 -21.7258
536 179 3 0.41 0.861092 4.8109 -22.1411
537 179 5 -0.82 0.168988 5.43138 -21.8011
538 180 3 0.41 8.23502 7.98376 2.28006
539 180 3 0.41 7.59973 8.85838 1.25769
540 180 5 -0.82 7.35724 8.00307 1.69094
541 181 3 0.41 2.48695 9.15109 -6.69749
542 181 3 0.41 2.02387 7.82553 -5.91891
543 181 5 -0.82 2.54662 8.67111 -5.8102
544 182 3 0.41 1.48757 4.71802 -12.1573
545 182 3 0.41 2.78287 5.1551 -11.4372
546 182 5 -0.82 1.79638 5.4636 -11.5555
547 183 3 0.41 1.6117 6.9257 -13.7489
548 183 3 0.41 0.668922 5.67989 -14.0386
549 183 5 -0.82 1.14396 6.44372 -14.5189
550 184 3 0.41 0.144493 5.3795 17.3516
551 184 3 0.41 1.67414 4.89777 17.1066
552 184 5 -0.82 1.02454 5.71479 17.0571
553 185 3 0.41 10.4536 3.53011 -15.3216
554 185 3 0.41 10.5632 4.15356 -16.8255
555 185 5 -0.82 10.5339 3.23765 -16.2973
556 186 3 0.41 9.59487 11.9263 -14.2311
557 186 3 0.41 10.4908 -0.840851 -13.9239
558 186 5 -0.82 10.4349 12.153 -13.699
559 187 3 0.41 6.86408 6.04217 3.83216
560 187 3 0.41 7.61171 4.70374 4.14492
561 187 5 -0.82 7.69832 5.5408 3.5402
562 188 3 0.41 11.3428 -0.42448 -22.1833
563 188 3 0.41 10.4997 0.324287 -20.9618
564 188 5 -0.82 11.1431 0.487971 -21.7414
565 189 3 0.41 12.3937 4.79899 12.0016
566 189 3 0.41 -1.12666 3.30531 12.1191
567 189 5 -0.82 12.0232 3.87911 12.0359
568 190 3 0.41 5.28435 11.9815 9.42172
569 190 3 0.41 4.18283 11.161 8.6109
570 190 5 -0.82 4.95824 11.0321 9.23346
571 191 3 0.41 4.86154 -1.09636 16.7749
572 191 3 0.41 5.93538 0.174593 16.5336
573 191 5 -0.82 5.68336 -0.781437 16.2431
574 192 3 0.41 8.91534 -0.815731 22.74
575 192 3 0.41 8.49518 -0.64195 21.1934
576 192 5 -0.82 8.30001 -0.255027 22.1401
577 193 3 0.41 3.30174 -1.42251 12.576
578 193 3 0.41 3.50963 -1.12001 14.1968
579 193 5 -0.82 4.01037 -1.43049 13.3575
580 194 3 0.41 3.52868 11.6175 5.98714
581 194 3 0.41 3.87947 10.2234 6.60501
582 194 5 -0.82 3.34148 11.0382 6.80097
583 195 3 0.41 11.2311 2.92408 13.7072
584 195 3 0.41 12.1964 1.82476 14.2776
585 195 5 -0.82 11.3984 2.3842 14.5224
586 196 3 0.41 8.07507 12.406 -21.6586
587 196 3 0.41 9.11575 -0.810218 -22.5735
588 196 5 -0.82 8.16149 -0.812289 -22.2491
589 197 3 0.41 12.2774 9.38856 6.58003
590 197 3 0.41 11.1708 8.91637 7.5126
591 197 5 -0.82 11.7009 9.73956 7.34669
592 198 3 0.41 11.1718 4.09274 -13.6674
593 198 3 0.41 10.0345 3.31908 -13.0344
594 198 5 -0.82 10.2213 3.79117 -13.9173
595 199 3 0.41 1.22546 2.33077 -16.0324
596 199 3 0.41 0.244765 2.56089 -14.7907
597 199 5 -0.82 0.628115 1.8437 -15.4023
598 200 3 0.41 0.337702 6.65711 5.45686
599 200 3 0.41 -0.643588 5.66547 6.3404
600 200 5 -0.82 -0.32596 6.61505 6.23774
601 201 3 0.41 5.89623 6.18063 10.7252
602 201 3 0.41 7.19711 5.39119 11.2545
603 201 5 -0.82 6.81558 5.83053 10.3915
604 202 3 0.41 3.82405 2.73537 -18.3907
605 202 3 0.41 4.4128 3.09973 -19.9802
606 202 5 -0.82 4.453 3.32184 -18.9905
607 203 3 0.41 -0.146901 6.10941 12.3468
608 203 3 0.41 0.664041 5.02772 11.7112
609 203 5 -0.82 -0.103476 5.62822 11.4575
610 204 3 0.41 7.65018 9.27221 -18.7246
611 204 3 0.41 6.08252 8.8536 -19.1972
612 204 5 -0.82 7.05301 8.99646 -19.5115
613 205 3 0.41 10.0149 0.397601 -12.111
614 205 3 0.41 8.89781 -0.224283 -11.1236
615 205 5 -0.82 9.89487 -0.0791826 -11.2208
616 206 3 0.41 11.9889 0.224118 6.41067
617 206 3 0.41 11.3424 0.524259 7.72814
618 206 5 -0.82 11.1758 -0.0588312 6.91327
619 207 3 0.41 6.26798 3.18365 4.72074
620 207 3 0.41 7.32804 2.83593 5.84929
621 207 5 -0.82 7.21612 3.45233 5.05857
622 208 3 0.41 5.7016 3.21828 10.0158
623 208 3 0.41 6.21279 3.75939 8.59355
624 208 5 -0.82 5.34019 3.57615 9.11939
625 209 3 0.41 9.88621 6.38953 -12.5048
626 209 3 0.41 8.5329 6.10691 -11.6218
627 209 5 -0.82 8.86631 6.39776 -12.5652
628 210 3 0.41 7.77255 7.78331 17.0207
629 210 3 0.41 9.39513 7.87427 16.4872
630 210 5 -0.82 8.42828 7.82631 16.2059
631 211 3 0.41 3.46713 5.98793 6.05549
632 211 3 0.41 2.28182 5.12149 5.5186
633 211 5 -0.82 2.46846 6.00217 5.96685
634 212 3 0.41 11.089 5.4966 20.8468
635 212 3 0.41 11.9798 5.27303 19.5111
636 212 5 -0.82 11.3094 5.94154 19.9254
637 213 3 0.41 12.3923 3.342 7.06673
638 213 3 0.41 -1.48781 3.98847 5.51646
639 213 5 -0.82 12.2667 4.20086 6.4742
640 214 3 0.41 12.3005 2.0012 0.638672
641 214 3 0.41 12.2944 3.56563 1.00289
642 214 5 -0.82 12.0186 2.64555 1.30087
643 215 3 0.41 4.5729 8.08834 -16.0613
644 215 3 0.41 6.21424 7.96247 -15.8969
645 215 5 -0.82 5.41426 8.55627 -15.7334
646 216 3 0.41 9.23279 11.5349 9.53924
647 216 3 0.41 10.8781 10.9202 9.39733
648 216 5 -0.82 10.1785 11.6378 9.07957
649 217 3 0.41 8.90418 7.55226 -10.5344
650 217 3 0.41 8.13777 8.93423 -10.0725
651 217 5 -0.82 8.92503 8.58483 -10.6367
652 218 3 0.41 4.56417 2.06666 2.60014
653 218 3 0.41 3.51273 1.83833 1.48565
654 218 5 -0.82 3.57795 1.95371 2.46055
655 219 3 0.41 9.90767 3.86934 -7.73175
656 219 3 0.41 10.6161 2.75327 -8.70384
657 219 5 -0.82 10.28 3.70585 -8.62896
658 220 3 0.41 9.30152 8.10101 22.2167
659 220 3 0.41 10.2841 6.77525 22.499
660 220 5 -0.82 10.1881 7.67591 22.0431
661 221 3 0.41 6.99506 11.1696 -14.2886
662 221 3 0.41 8.06964 9.92122 -14.2313
663 221 5 -0.82 7.94402 10.9084 -14.5126
664 222 3 0.41 3.06852 10.0437 -21.8769
665 222 3 0.41 2.06004 11.1486 -21.307
666 222 5 -0.82 2.22057 10.4906 -22.0628
667 223 3 0.41 -0.130787 0.517652 -0.130181
668 223 3 0.41 -1.16756 -0.37236 -0.994413
669 223 5 -0.82 -1.12703 0.275988 -0.219236
670 224 3 0.41 6.54286 8.43134 12.7314
671 224 3 0.41 5.90805 8.76417 11.2265
672 224 5 -0.82 6.46438 9.12984 12
673 225 3 0.41 12.3424 1.46092 -6.01456
674 225 3 0.41 -1.426 0.0671342 -6.90601
675 225 5 -0.82 11.9531 0.585539 -6.28871
676 226 3 0.41 11.4444 0.877065 19.969
677 226 3 0.41 10.5325 1.93652 19.3662
678 226 5 -0.82 11.3938 1.39439 19.1459
679 227 3 0.41 -0.418543 4.16505 20.2302
680 227 3 0.41 0.758068 4.04061 21.3102
681 227 5 -0.82 0.070918 4.71125 20.9247
682 228 3 0.41 11.7184 6.64082 -7.70126
683 228 3 0.41 11.9696 5.71411 -6.46411
684 228 5 -0.82 12.436 6.26237 -7.18226
685 229 3 0.41 5.67887 4.50681 -20.0721
686 229 3 0.41 6.49329 4.82747 -21.5622
687 229 5 -0.82 5.62065 4.96641 -20.9984
688 230 3 0.41 -0.721506 6.74412 3.12979
689 230 3 0.41 12.4242 7.10658 1.92625
690 230 5 -0.82 12.3126 6.6209 2.78853
691 231 3 0.41 -0.213538 -0.858476 -3.22147
692 231 3 0.41 -1.27443 12.0847 -2.88024
693 231 5 -0.82 -0.814026 -1.09126 -2.43646
694 232 3 0.41 -1.41439 8.79393 -4.95956
695 232 3 0.41 -0.0308091 8.25593 -5.37822
696 232 5 -0.82 -0.596916 9.10697 -5.40261
697 233 3 0.41 7.46309 7.44724 -5.93049
698 233 3 0.41 6.33646 7.26075 -4.92771
699 233 5 -0.82 6.46698 7.1327 -5.91189
700 234 3 0.41 3.89598 5.39017 -0.0630026
701 234 3 0.41 5.06977 4.43202 -0.740281
702 234 5 -0.82 4.21138 4.96825 -0.931385
703 235 3 0.41 1.75102 -0.925446 10.9324
704 235 3 0.41 1.33553 11.9674 12.0761
705 235 5 -0.82 2.10256 12.2912 11.4915
706 236 3 0.41 8.98528 7.14867 -7.2573
707 236 3 0.41 9.28183 5.52541 -6.63567
708 236 5 -0.82 9.60533 6.48127 -6.75333
709 237 3 0.41 7.01388 7.649 14.9384
710 237 3 0.41 7.03139 6.54022 13.6982
711 237 5 -0.82 6.65313 7.4537 14.0173
712 238 3 0.41 10.7895 7.56011 11.2525
713 238 3 0.41 12.0994 7.08336 10.3955
714 238 5 -0.82 11.7764 7.69986 11.1317
715 239 3 0.41 0.892551 1.47754 2.56217
716 239 3 0.41 0.143042 0.225145 3.22361
717 239 5 -0.82 0.611965 1.13278 3.48173
718 240 3 0.41 2.81647 10.8674 -13.8658
719 240 3 0.41 3.36187 9.51485 -14.0024
720 240 5 -0.82 3.43052 10.3816 -14.5386
721 241 3 0.41 10.9222 -0.283736 0.276071
722 241 3 0.41 10.7959 0.961782 1.16455
723 241 5 -0.82 10.2297 0.33485 0.639979
724 242 3 0.41 -0.461529 8.46324 -2.45665
725 242 3 0.41 -0.693863 9.77332 -1.42014
726 242 5 -0.82 -0.0455351 9.28937 -2.07095
727 243 3 0.41 10.5186 9.82414 -14.5541
728 243 3 0.41 11.0644 8.983 -15.7893
729 243 5 -0.82 10.7563 9.91827 -15.5282
730 244 3 0.41 0.651553 2.20422 21.4223
731 244 3 0.41 0.132445 0.720744 21.5301
732 244 5 -0.82 0.00661808 1.54715 20.9857
733 245 3 0.41 6.9734 0.352043 -22.0117
734 245 3 0.41 7.64043 1.79991 -22.0939
735 245 5 -0.82 6.73046 1.3433 -21.9409
736 246 3 0.41 9.30918 11.5768 20.7095
737 246 3 0.41 10.2168 12.4805 19.7645
738 246 5 -0.82 9.29457 12.3823 20.1193
739 247 3 0.41 4.42116 -0.826424 19.107
740 247 3 0.41 2.75302 -0.598763 18.9279
741 247 5 -0.82 3.6652 -0.135556 19.0391
742 248 3 0.41 3.05592 11.9079 3.8832
743 248 3 0.41 3.51816 -0.709062 4.565
744 248 5 -0.82 3.73427 12.287 4.51413
745 249 3 0.41 7.71329 5.30114 -13.8895
746 249 3 0.41 8.79944 4.55338 -14.5666
747 249 5 -0.82 7.9003 4.88656 -14.7972
748 250 3 0.41 6.54304 8.26077 22.4057
749 250 3 0.41 7.55844 7.01166 22.0656
750 250 5 -0.82 7.47535 8.05043 22.0771
751 251 3 0.41 8.42933 9.47177 15.2411
752 251 3 0.41 8.28358 9.20348 13.7548