ITEM: TIMESTEP
80000
ITEM: NUMBER OF ATOMS
1360
ITEM: BOX BOUNDS pp pp pp
-1.5000000000000000e+00 1.2500000000000000e+01
-1.5000000000000000e+00 1.2500000000000000e+01
-2.7500000000000000e+01 2.7500000000000000e+01
ITEM: ATOMS id mol type q x y z
1 1 3 0.41 4.7161 8.21365 10.6157
2 1 3 0.41 3.51567 9.06877 10.0125
3 1 5 -0.82 3.82835 8.17042 10.1335
4 2 3 0.41 7.28761 8.69544 -13.3463
5 2 3 0.41 8.93498 8.77513 -13.5736
6 2 5 -0.82 8.03683 9.17555 -13.8866
7 3 3 0.41 8.22601 -0.849293 17.7512
8 3 3 0.41 8.37022 -1.41192 16.209
9 3 5 -0.82 8.23923 -0.56214 16.7662
10 4 3 0.41 7.22047 4.82076 -15.6249
11 4 3 0.41 6.1316 3.57493 -15.6419
12 4 5 -0.82 6.5813 4.26057 -16.2546
13 5 3 0.41 -0.439493 11.4029 -3.63184
14 5 3 0.41 -0.614261 9.7947 -3.36654
15 5 5 -0.82 -1.02028 10.6145 -3.80254
16 6 3 0.41 0.339802 7.77042 -18.2305
17 6 3 0.41 0.283688 6.95522 -19.5839
18 6 5 -0.82 -0.320791 7.50099 -18.987
19 7 3 0.41 3.81898 0.767229 -21.537
20 7 3 0.41 3.05298 -0.414471 -22.0377
21 7 5 -0.82 2.86817 0.532797 -21.6948
22 8 3 0.41 2.78949 9.84647 15.3191
23 8 3 0.41 1.95129 9.10256 14.3309
24 8 5 -0.82 2.85673 9.41359 14.3862
25 9 3 0.41 1.25374 9.69554 -12.2491
26 9 3 0.41 2.49696 10.5554 -11.7519
27 9 5 -0.82 1.5616 10.6493 -12.143
28 10 3 0.41 2.74149 3.52141 2.60927
29 10 3 0.41 2.88934 4.86684 1.96164
30 10 5 -0.82 3.11382 4.35172 2.79272
31 11 3 0.41 1.12413 1.02371 -6.87802
32 11 3 0.41 0.250139 -0.228733 -6.54836
33 11 5 -0.82 1.05842 0.0186671 -7.1051
34 12 3 0.41 9.05958 -0.931669 -14.9642
35 12 3 0.41 9.57541 0.23914 -15.9878
36 12 5 -0.82 8.73539 -0.0949154 -15.5117
37 13 3 0.41 -1.10661 11.0283 -1.07599
38 13 3 0.41 12.0585 10.52 0.316973
39 13 5 -0.82 12.1351 11.2361 -0.437234
40 14 3 0.41 3.00394 7.65145 -13.4585
41 14 3 0.41 3.25252 7.2899 -11.9278
42 14 5 -0.82 3.71063 7.34262 -12.8292
43 15 3 0.41 5.84604 3.518 12.7275
44 15 3 0.41 5.60211 2.85099 14.1217
45 15 5 -0.82 5.13077 3.07337 13.2329
46 16 3 0.41 8.78278 4.68398 10.4049
47 16 3 0.41 8.70377 4.59551 8.79323
48 16 5 -0.82 8.1267 4.55083 9.6572
49 17 3 0.41 12.1722 7.44856 22.863
50 17 3 0.41 10.8174 7.17058 21.9773
51 17 5 -0.82 11.7979 6.96242 22.0549
52 18 3 0.41 4.70048 -1.48248 -10.3053
53 18 3 0.41 6.1092 12.4763 -9.55907
54 18 5 -0.82 5.70896 12.3602 -10.491
55 19 3 0.41 12.1547 5.26841 8.39699
56 19 3 0.41 -1.35781 3.85056 8.98058
57 19 5 -0.82 11.9978 4.6037 9.20832
58 20 3 0.41 0.448866 10.3753 -10.5697
59 20 3 0.41 0.238066 9.90631 -9.09414
60 20 5 -0.82 -0.269656 10.2335 -9.94227
61 21 3 0.41 3.27697 10.5989 22.177
62 21 3 0.41 4.21004 9.40415 21.9031
63 21 5 -0.82 4.2744 10.4243 22.0797
64 22 3 0.41 -1.45138 11.5862 -16.0945
65 22 3 0.41 -1.15269 10.0252 -16.5208
66 22 5 -0.82 12.3484 10.8299 -16.7739
67 23 3 0.41 2.75047 3.01672 -13.6694
68 23 3 0.41 3.53877 3.65183 -12.4509
69 23 5 -0.82 3.26753 2.78439 -12.8148
70 24 3 0.41 0.512826 -1.46499 -19.4759
71 24 3 0.41 1.37795 -0.110908 -19.4492
72 24 5 -0.82 0.731467 -0.6462 -20.011
73 25 3 0.41 9.87097 5.40837 -11.3059
74 25 3 0.41 8.37279 5.0868 -11.3
75 25 5 -0.82 9.10533 5.43011 -11.9406
76 26 3 0.41 11.4838 11.7245 -2.775
77 26 3 0.41 10.7342 -0.950181 -2.11687
78 26 5 -0.82 11.1785 -1.3093 -2.9498
79 27 3 0.41 11.8163 5.99053 -13.9647
80 27 3 0.41 -0.767707 6.25321 -13.2687
81 27 5 -0.82 -1.49805 6.72927 -13.8478
82 28 3 0.41 4.51794 7.91333 -4.80399
83 28 3 0.41 4.38726 7.33859 -3.42998
84 28 5 -0.82 5.11509 7.63027 -4.06912
85 29 3 0.41 5.41692 4.40796 19.2546
86 29 3 0.41 4.55637 3.08982 19.0225
87 29 5 -0.82 5.51369 3.42196 19.0634
88 30 3 0.41 9.43629 9.60437 8.10791
89 30 3 0.41 9.49294 11.0487 8.81402
90 30 5 -0.82 8.92449 10.506 8.15366
91 31 3 0.41 2.57643 5.88923 -20.2153
92 31 3 0.41 3.22898 6.6575 -18.9141
93 31 5 -0.82 2.36272 6.23572 -19.2373
94 32 3 0.41 -0.819562 0.104175 -21.0507
95 32 3 0.41 -0.251714 -0.563405 -22.3837
96 32 5 -0.82 -0.936727 0.0998046 -22.0577
97 33 3 0.41 8.58781 -0.875521 -19.0186
98 33 3 0.41 8.77972 11.6299 -18.522
99 33 5 -0.82 8.08211 12.3417 -18.743
100 34 3 0.41 3.10618 9.63517 5.24549
101 34 3 0.41 3.46071 8.96176 6.6619
102 34 5 -0.82 3.8269 9.55966 5.94175
103 35 3 0.41 3.694 1.90739 17.63
104 35 3 0.41 4.15636 3.05316 16.5137
105 35 5 -0.82 3.79397 2.066 16.6423
106 36 3 0.41 4.48973 12.2577 -5.68275
107 36 3 0.41 6.08938 12.0336 -5.16207
108 36 5 -0.82 5.17173 11.5898 -5.27406
109 37 3 0.41 0.814623 12.1668 22.6398
110 37 3 0.41 1.50772 -0.790393 21.5637
111 37 5 -0.82 0.736196 -0.885247 22.2149
112 38 3 0.41 6.19009 4.16543 1.57581
113 38 3 0.41 6.63428 2.91819 0.668126
114 38 5 -0.82 6.35906 3.15413 1.65721
115 39 3 0.41 11.7308 0.471921 -16.7144
116 39 3 0.41 11.0114 1.75013 -15.9786
117 39 5 -0.82 10.9147 1.07603 -16.7398
118 40 3 0.41 5.12155 -0.952782 -19.0252
119 40 3 0.41 6.62333 -0.911438 -19.1447
120 40 5 -0.82 5.82201 -0.389421 -19.4676
121 41 3 0.41 4.31761 5.42047 -11.1403
122 41 3 0.41 2.85668 4.55329 -11.0786
123 41 5 -0.82 3.7649 4.77373 -10.6483
124 42 3 0.41 11.7933 12.2227 7.19996
125 42 3 0.41 11.4169 11.4702 5.82793
126 42 5 -0.82 11.702 11.3229 6.79831
127 43 3 0.41 6.61974 7.22014 16.1488
128 43 3 0.41 6.41949 7.63306 14.5183
129 43 5 -0.82 6.1472 7.87516 15.5093
130 44 3 0.41 8.37287 1.04182 -18.758
131 44 3 0.41 8.32074 1.2768 -20.4332
132 44 5 -0.82 8.93254 0.979154 -19.6722
133 45 3 0.41 9.4608 9.70284 -5.99637
134 45 3 0.41 9.03159 10.9368 -5.11992
135 45 5 -0.82 9.30395 10.7016 -6.05685
136 46 3 0.41 0.481337 5.30075 15.611
137 46 3 0.41 1.76203 4.91318 14.6449
138 46 5 -0.82 0.761015 5.03112 14.6634
139 47 3 0.41 11.529 3.09502 4.96637
140 47 3 0.41 -1.25181 2.73301 3.9988
141 47 5 -0.82 12.0901 3.4649 4.16176
142 48 3 0.41 0.349017 5.49787 23.1043
143 48 3 0.41 1.00198 4.44893 22.0653
144 48 5 -0.82 0.424434 5.29812 22.1077
145 49 3 0.41 0.467917 7.52757 -6.12243
146 49 3 0.41 0.345898 8.01164 -4.61672
147 49 5 -0.82 0.666199 7.24943 -5.19938
148 50 3 0.41 7.49669 4.70555 14.7444
149 50 3 0.41 6.42244 4.00994 15.7363
150 50 5 -0.82 7.15689 3.789 15.068
151 51 3 0.41 0.757891 6.0578 13.1994
152 51 3 0.41 0.458113 5.05396 12.0937
153 51 5 -0.82 0.502054 6.06773 12.2407
154 52 3 0.41 8.24509 1.99141 -6.77464
155 52 3 0.41 9.28752 0.799806 -7.17197
156 52 5 -0.82 8.31362 1.02484 -7.03374
157 53 3 0.41 3.88983 10.9955 8.66262
158 53 3 0.41 3.30983 11.7939 10.0094
159 53 5 -0.82 3.23496 10.8925 9.49241
160 54 3 0.41 7.48857 -0.770125 13.8595
161 54 3 0.41 8.94725 -0.456583 13.5131
162 54 5 -0.82 8.10661 0.0588427 13.734
163 55 3 0.41 -1.09154 9.97915 11.3949
164 55 3 0.41 12.2377 8.48335 11.729
165 55 5 -0.82 12.3589 9.40329 12.0712
166 56 3 0.41 11.2337 6.61843 0.785286
167 56 3 0.41 12.3911 5.94254 1.67545
168 56 5 -0.82 11.5128 6.39273 1.75513
169 57 3 0.41 3.45695 11.5101 -21.4168
170 57 3 0.41 4.57046 12.0673 -22.4463
171 57 5 -0.82 3.56214 12.0654 -22.3036
172 58 3 0.41 0.854604 10.2279 -18.4292
173 58 3 0.41 -0.365467 11.0215 -18.0813
174 58 5 -0.82 0.21615 10.9115 -18.8919
175 59 3 0.41 0.956137 0.626129 10.4649
176 59 3 0.41 0.357454 0.120315 11.9083
177 59 5 -0.82 1.05298 0.763996 11.4916
178 60 3 0.41 -1.1889 0.655753 -5.52281
179 60 3 0.41 -1.41815 2.09404 -5.08871
180 60 5 -0.82 -1.10688 1.57873 -5.90542
181 61 3 0.41 -0.26622 7.67765 13.7808
182 61 3 0.41 0.207409 8.64641 14.9294
183 61 5 -0.82 0.411889 8.34908 14.0088
184 62 3 0.41 12.1276 1.9746 1.23516
185 62 3 0.41 -0.884262 1.17438 2.11455
186 62 5 -0.82 12.2325 1.06186 1.64296
187 63 3 0.41 3.71034 6.22119 19.8423
188 63 3 0.41 2.15994 5.80936 19.4752
189 63 5 -0.82 2.86928 6.56254 19.3996
190 64 3 0.41 7.37752 -0.13718 -0.598082
191 64 3 0.41 6.24125 0.606483 0.0762771
192 64 5 -0.82 7.12282 0.198688 0.339862
193 65 3 0.41 6.22082 10.396 -2.42354
194 65 3 0.41 5.29877 11.0155 -1.10987
195 65 5 -0.82 5.28343 10.493 -2.02156
196 66 3 0.41 1.49308 7.3063 6.08984
197 66 3 0.41 0.206563 6.85185 6.82088
198 66 5 -0.82 0.888262 6.52699 6.17958
199 67 3 0.41 4.19329 5.0665 15.8291
200 67 3 0.41 5.01203 5.15857 17.2253
201 67 5 -0.82 4.85276 4.54661 16.4406
202 68 3 0.41 1.34963 3.11125 16.9132
203 68 3 0.41 1.58023 2.6217 18.5226
204 68 5 -0.82 1.4279 3.4199 17.849
205 69 3 0.41 0.644615 5.8814 -15.8908
206 69 3 0.41 0.76338 5.62269 -17.3824
207 69 5 -0.82 0.756254 6.37983 -16.7737
208 70 3 0.41 12.1027 8.1547 -18.971
209 70 3 0.41 11.0235 8.31369 -17.71
210 70 5 -0.82 11.2213 8.53131 -18.6315
211 71 3 0.41 3.16971 6.83159 8.62172
212 71 3 0.41 4.67045 6.40559 8.29149
213 71 5 -0.82 3.75309 6.22166 8.01939
214 72 3 0.41 3.4764 12.266 20.0949
215 72 3 0.41 2.44368 -0.778289 19.2836
216 72 5 -0.82 2.787 -0.979765 20.1821
217 73 3 0.41 11.8369 10.3821 -12.6096
218 73 3 0.41 10.5854 10.0891 -11.6526
219 73 5 -0.82 11.306 10.7324 -11.8051
220 74 3 0.41 8.10632 -0.710008 -4.50634
221 74 3 0.41 7.76469 -0.423183 -5.97658
222 74 5 -0.82 7.2785 -0.717394 -5.17341
223 75 3 0.41 11.6336 8.27369 -9.59254
224 75 3 0.41 -1.26008 9.01075 -10.3499
225 75 5 -0.82 12.1035 8.23675 -10.4757
226 76 3 0.41 10.7559 4.39051 -16.8742
227 76 3 0.41 10.8949 6.01526 -16.7182
228 76 5 -0.82 11.4445 5.17594 -16.9262
229 77 3 0.41 6.80605 11.1261 13.8942
230 77 3 0.41 5.68304 12.1698 14.4083
231 77 5 -0.82 6.64763 12.0956 14.11
232 78 3 0.41 0.818996 2.0387 -9.07345
233 78 3 0.41 -0.613629 1.84123 -9.94331
234 78 5 -0.82 -0.135388 1.84791 -9.03228
235 79 3 0.41 3.56029 -0.663969 -13.2516
236 79 3 0.41 2.31138 0.424927 -12.6809
237 79 5 -0.82 3.051 -0.249655 -12.4341
238 80 3 0.41 10.6655 1.75713 -20.9601
239 80 3 0.41 11.5049 1.0716 -22.016
240 80 5 -0.82 10.5674 1.43496 -21.8918
241 81 3 0.41 6.87254 5.94299 -10.0454
242 81 3 0.41 7.8173 7.07354 -10.5534
243 81 5 -0.82 7.4446 6.72906 -9.67694
244 82 3 0.41 9.29484 2.15499 0.600623
245 82 3 0.41 8.15722 1.05887 1.1466
246 82 5 -0.82 8.94607 1.65939 1.41954
247 83 3 0.41 8.02593 -0.924038 1.29239
248 83 3 0.41 9.42514 12.3854 1.61003
249 83 5 -0.82 8.50672 12.46 1.94347
250 84 3 0.41 0.93747 8.69329 12.5215
251 84 3 0.41 1.28033 10.0237 11.7681
252 84 5 -0.82 1.42133 9.00273 11.6955
253 85 3 0.41 4.04344 0.118848 22.7834
254 85 3 0.41 3.17547 0.181459 21.3648
255 85 5 -0.82 3.66947 0.709228 22.0563
256 86 3 0.41 7.04635 5.7367 -17.2316
257 86 3 0.41 7.81919 6.84277 -18.0895
258 86 5 -0.82 6.95933 6.64327 -17.5912
259 87 3 0.41 9.61976 11.565 11.3846
260 87 3 0.41 8.10747 11.916 11.4817
261 87 5 -0.82 8.98803 12.3471 11.3181
262 88 3 0.41 5.57259 5.41067 11.1208
263 88 3 0.41 6.62204 4.53975 10.175
264 88 5 -0.82 5.62367 4.6576 10.4181
265 89 3 0.41 9.927 12.0845 -13.1642
266 89 3 0.41 8.55687 11.4453 -13.7652
267 89 5 -0.82 9.3985 11.8664 -14.0254
268 90 3 0.41 5.56584 8.61029 -7.82246
269 90 3 0.41 6.09052 7.46168 -8.77636
270 90 5 -0.82 5.41066 7.65398 -8.06462
271 91 3 0.41 0.612121 1.83737 -2.07018
272 91 3 0.41 0.0579455 0.967698 -0.866556
273 91 5 -0.82 0.0798099 1.92643 -1.22022
274 92 3 0.41 10.0458 4.01183 6.95614
275 92 3 0.41 10.223 5.52126 7.25232
276 92 5 -0.82 9.51551 4.7778 7.26836
277 93 3 0.41 11.6418 6.20209 17.6391
278 93 3 0.41 -0.858451 6.09629 16.9132
279 93 5 -0.82 12.2055 6.43833 16.8474
280 94 3 0.41 4.44545 5.7609 4.91052
281 94 3 0.41 3.74874 5.83306 6.30034
282 94 5 -0.82 3.63162 6.14002 5.34182
283 95 3 0.41 3.83242 -0.642767 17.1764
284 95 3 0.41 2.23163 -0.411984 16.6082
285 95 5 -0.82 2.83577 -0.72626 17.3568
286 96 3 0.41 10.1711 1.75888 10.2457
287 96 3 0.41 10.773 2.9623 9.3398
288 96 5 -0.82 10.0726 2.24913 9.40054
289 97 3 0.41 11.3571 8.84093 18.6503
290 97 3 0.41 12.0544 9.9021 19.7293
291 97 5 -0.82 12.2765 9.26257 18.9685
292 98 3 0.41 4.31883 11.8646 -14.3066
293 98 3 0.41 5.17498 -1.2772 -15.276
294 98 5 -0.82 4.31646 -1.24534 -14.7584
295 99 3 0.41 8.688 0.921849 -3.12046
296 99 3 0.41 9.59363 0.862757 -4.46243
297 99 5 -0.82 9.04715 1.48824 -3.87716
298 100 3 0.41 2.38399 10.3175 -5.55168
299 100 3 0.41 0.853093 10.8489 -5.81293
300 100 5 -0.82 1.70241 11.0409 -5.3103
301 101 3 0.41 10.6675 2.33844 -6.54099
302 101 3 0.41 9.64485 2.96135 -5.39507
303 101 5 -0.82 10.4522 3.15404 -6.00335
304 102 3 0.41 3.15028 -1.39526 -17.7856
305 102 3 0.41 4.1273 11.4083 -17.8409
306 102 5 -0.82 3.89223 12.1855 -18.3865
307 103 3 0.41 8.74924 6.67227 5.78496
308 103 3 0.41 7.55752 7.85181 5.95589
309 103 5 -0.82 8.51556 7.59379 6.16808
310 104 3 0.41 12.1904 7.65867 -15.6051
311 104 3 0.41 -0.580549 7.77762 -16.6581
312 104 5 -0.82 -1.33326 8.30553 -16.2152
313 105 3 0.41 0.695014 2.39541 0.211875
314 105 3 0.41 2.08124 2.64515 0.516853
315 105 5 -0.82 1.2223 2.9704 0.901738
316 106 3 0.41 7.4505 7.35541 0.993919
317 106 3 0.41 6.34484 8.18436 0.230028
318 106 5 -0.82 7.30743 8.23354 0.586861
319 107 3 0.41 6.16209 7.15304 -16.2825
320 107 3 0.41 4.82227 7.0788 -15.4098
321 107 5 -0.82 5.75459 7.46941 -15.4416
322 108 3 0.41 0.0721368 -0.295766 -11.6124
323 108 3 0.41 0.476284 12.2009 -11.667
324 108 5 -0.82 -0.334342 -1.22282 -11.7932
325 109 3 0.41 5.60094 0.556254 -17.5806
326 109 3 0.41 4.91249 1.29784 -16.4337
327 109 5 -0.82 4.87022 1.2732 -17.4324
328 110 3 0.41 2.11131 8.18752 -17.5333
329 110 3 0.41 2.5044 9.63996 -17.2988
330 110 5 -0.82 1.79765 9.12694 -17.8205
331 111 3 0.41 -0.159655 10.4891 -13.9194
332 111 3 0.41 -1.28985 9.3049 -14.4375
333 111 5 -0.82 -1.11946 10.1186 -13.8306
334 112 3 0.41 12.3656 -0.434446 -12.6221
335 112 3 0.41 11.501 0.890399 -13.1488
336 112 5 -0.82 11.4809 -0.102864 -12.9617
337 113 3 0.41 11.3448 1.64686 12.6643
338 113 3 0.41 11.7359 3.14873 13.1756
339 113 5 -0.82 11.5536 2.2042 13.4886
340 114 3 0.41 8.58747 3.21356 -16.6698
341 114 3 0.41 9.17619 3.13596 -15.2006
342 114 5 -0.82 9.40572 3.52177 -16.0899
343 115 3 0.41 7.22805 8.57229 3.1837
344 115 3 0.41 6.95995 9.13844 4.68347
345 115 5 -0.82 7.23244 9.39352 3.76465
346 116 3 0.41 9.01633 6.50206 14.942
347 116 3 0.41 8.17898 6.20419 13.6082
348 116 5 -0.82 8.76279 5.75216 14.3262
349 117 3 0.41 6.64269 10.4937 -21.8571
350 117 3 0.41 6.92174 12.0751 -22.0048
351 117 5 -0.82 6.14717 11.3798 -21.8861
352 118 3 0.41 8.30909 10.6603 -7.31731
353 118 3 0.41 7.27445 11.6708 -7.88903
354 118 5 -0.82 7.79285 10.846 -8.1295
355 119 3 0.41 2.45033 2.4263 -6.68441
356 119 3 0.41 1.49311 3.71581 -6.99571
357 119 5 -0.82 1.49497 2.76248 -6.65584
358 120 3 0.41 5.18536 5.85751 0.371892
359 120 3 0.41 6.70332 5.42854 0.0468053
360 120 5 -0.82 6.09285 5.82123 0.754424
361 121 3 0.41 3.20738 2.31615 -8.34625
362 121 3 0.41 3.23273 3.19581 -9.70124
363 121 5 -0.82 2.81351 2.38445 -9.24907
364 122 3 0.41 1.83602 10.7526 4.11623
365 122 3 0.41 1.11725 10.2969 5.43862
366 122 5 -0.82 1.49853 9.91338 4.53913
367 123 3 0.41 -0.822542 8.4569 5.19193
368 123 3 0.41 11.7562 9.0748 5.7979
369 123 5 -0.82 -1.30808 8.74291 6.072
370 124 3 0.41 2.50971 3.47694 -1.91429
371 124 3 0.41 1.35356 3.86173 -2.92599
372 124 5 -0.82 1.95451 4.28877 -2.2366
373 125 3 0.41 12.2612 9.12686 -21.3455
374 125 3 0.41 -1.14389 7.71179 -21.8569
375 125 5 -0.82 12.0013 8.25709 -21.837
376 126 3 0.41 1.20539 6.15457 -21.7608
377 126 3 0.41 0.669565 7.63316 -21.842
378 126 5 -0.82 0.339572 6.67375 -21.8855
379 127 3 0.41 -0.890121 3.72296 12.0256
380 127 3 0.41 12.1861 4.21856 11.0348
381 127 5 -0.82 12.2507 4.29485 12.009
382 128 3 0.41 0.314532 6.74419 10.2008
383 128 3 0.41 0.906478 6.06158 8.95832
384 128 5 -0.82 1.07102 6.88308 9.5275
385 129 3 0.41 5.71047 0.505379 5.63036
386 129 3 0.41 4.75901 0.795275 6.89449
387 129 5 -0.82 5.51805 1.17741 6.34912
388 130 3 0.41 5.77389 5.22252 -1.80693
389 130 3 0.41 4.504 4.68803 -2.64648
390 130 5 -0.82 4.74706 5.38947 -1.91168
391 131 3 0.41 6.10895 4.40824 -11.8348
392 131 3 0.41 6.46964 3.73534 -10.4299
393 131 5 -0.82 6.72681 4.50931 -11.0207
394 132 3 0.41 10.6209 6.00952 -7.44616
395 132 3 0.41 10.2223 4.72691 -6.43164
396 132 5 -0.82 9.93819 5.64632 -6.84212
397 133 3 0.41 11.2816 11.8326 2.89834
398 133 3 0.41 10.944 10.6196 3.96501
399 133 5 -0.82 11.4379 11.5378 3.89278
400 134 3 0.41 2.76811 3.13468 5.7101
401 134 3 0.41 1.19326 3.19828 6.14384
402 134 5 -0.82 1.99256 3.76559 5.87196
403 135 3 0.41 -0.468233 0.561153 -18.1577
404 135 3 0.41 1.02095 1.27319 -17.8432
405 135 5 -0.82 0.135133 1.00261 -17.4928
406 136 3 0.41 2.62986 1.96622 15.3367
407 136 3 0.41 2.02432 1.10832 14.0741
408 136 5 -0.82 1.88122 1.92749 14.6505
409 137 3 0.41 7.59349 12.491 3.64307
410 137 3 0.41 6.90172 11.2059 4.36706
411 137 5 -0.82 7.38478 12.0632 4.55548
412 138 3 0.41 -0.298344 10.2085 9.31486
413 138 3 0.41 1.03739 10.8373 9.95561
414 138 5 -0.82 0.064718 10.9879 9.87651
415 139 3 0.41 4.57098 4.6073 21.9382
416 139 3 0.41 2.99333 4.59039 21.9083
417 139 5 -0.82 3.81313 5.24188 21.7228
418 140 3 0.41 12.1001 4.79701 -2.59816
419 140 3 0.41 11.4677 3.32715 -2.96832
420 140 5 -0.82 11.2578 4.21534 -2.49699
421 141 3 0.41 7.07049 8.96266 -20.6579
422 141 3 0.41 8.14191 9.31319 -21.8253
423 141 5 -0.82 7.14065 9.14302 -21.6087
424 142 3 0.41 3.61828 1.80289 -0.220595
425 142 3 0.41 3.38385 1.41121 -1.83305
426 142 5 -0.82 3.42736 2.16968 -1.17118
427 143 3 0.41 8.48619 -0.788957 9.98228
428 143 3 0.41 8.04351 -0.372965 8.41431
429 143 5 -0.82 8.33852 -0.00875584 9.33136
430 144 3 0.41 -0.330559 11.9897 -8.05319
431 144 3 0.41 -0.323315 -0.367026 -8.4805
432 144 5 -0.82 -0.824147 -1.26651 -8.59192
433 145 3 0.41 5.93116 10.1916 -5.77358
434 145 3 0.41 6.04475 8.78761 -4.85766
435 145 5 -0.82 6.45218 9.31798 -5.65064
436 146 3 0.41 10.2582 12.4009 -5.83796
437 146 3 0.41 10.4361 -1.0711 -4.39816
438 146 5 -0.82 10.0596 -0.78232 -5.28243
439 147 3 0.41 3.33035 1.36001 -4.26236
440 147 3 0.41 3.20727 -0.0612221 -3.44365
441 147 5 -0.82 2.7573 0.830265 -3.64487
442 148 3 0.41 -0.847405 7.94356 19.2076
443 148 3 0.41 0.350256 7.25284 18.5455
444 148 5 -0.82 -0.279313 7.12759 19.309
445 149 3 0.41 7.66802 8.39916 -6.04911
446 149 3 0.41 8.11169 7.02192 -6.49553
447 149 5 -0.82 8.55185 7.89633 -6.25693
448 150 3 0.41 11.5274 -1.05325 -19.4511
449 150 3 0.41 10.9746 0.493014 -19.3968
450 150 5 -0.82 11.8169 -0.0630056 -19.3954
451 151 3 0.41 1.70718 8.37924 8.53772
452 151 3 0.41 2.35463 9.96729 8.56035
453 151 5 -0.82 1.99562 9.17421 7.95951
454 152 3 0.41 4.47347 3.74245 3.35376
455 152 3 0.41 5.54942 2.63651 3.80972
456 152 5 -0.82 5.09656 3.45063 4.18408
457 153 3 0.41 -1.35164 6.65371 11.4524
458 153 3 0.41 12.1372 6.1603 9.95381
459 153 5 -0.82 -1.49983 6.92189 10.4903
460 154 3 0.41 7.20123 -0.221749 -13.3653
461 154 3 0.41 6.3515 0.831039 -12.5118
462 154 5 -0.82 6.89344 0.738064 -13.3526
463 155 3 0.41 7.98545 -1.0912 22.3587
464 155 3 0.41 9.40526 12.1423 22.0759
465 155 5 -0.82 8.95475 -0.996809 22.0099
466 156 3 0.41 6.07528 10.8809 -19.9261
467 156 3 0.41 6.91411 10.4191 -18.6371
468 156 5 -0.82 6.06434 10.2207 -19.1329
469 157 3 0.41 6.67134 0.112559 19.4721
470 157 3 0.41 5.277 -0.697641 19.4799
471 157 5 -0.82 5.73759 0.157142 19.8285
472 158 3 0.41 7.49218 9.23946 -10.422
473 158 3 0.41 6.34398 10.1983 -9.69822
474 158 5 -0.82 6.47194 9.47191 -10.4435
475 159 3 0.41 1.34244 0.976784 -14.8014
476 159 3 0.41 0.577169 0.609994 -13.4855
477 159 5 -0.82 0.70285 0.297705 -14.4663
478 160 3 0.41 10.7858 12.1504 14.3385
479 160 3 0.41 11.6549 -0.860106 13.6062
480 160 5 -0.82 10.7691 -0.86635 14.0764
481 161 3 0.41 5.18371 5.3868 -19.0473
482 161 3 0.41 5.52404 4.74018 -17.6452
483 161 5 -0.82 4.77666 4.85951 -18.3036
484 162 3 0.41 10.6158 11.4584 -0.718905
485 162 3 0.41 9.17065 10.8656 -0.313706
486 162 5 -0.82 9.62425 11.6629 -0.789861
487 163 3 0.41 2.5065 6.41222 0.149821
488 163 3 0.41 3.22684 5.09515 -0.50827
489 163 5 -0.82 3.01708 5.52199 0.410073
490 164 3 0.41 3.88559 6.12082 -7.65752
491 164 3 0.41 3.58995 5.1488 -8.84426
492 164 5 -0.82 3.51765 5.20289 -7.84942
493 165 3 0.41 0.223138 0.92346 16.204
494 165 3 0.41 0.173966 -0.326781 17.2991
495 165 5 -0.82 0.374878 -0.0612746 16.3314
496 166 3 0.41 7.83458 1.54466 18.4549
497 166 3 0.41 6.6824 2.67865 18.0639
498 166 5 -0.82 7.32186 2.02017 17.6742
499 167 3 0.41 1.55824 3.34559 -18.3078
500 167 3 0.41 3.14424 3.87528 -18.1424
501 167 5 -0.82 2.33131 3.56199 -17.6566
502 168 3 0.41 -0.575478 5.45724 -5.24558
503 168 3 0.41 12.1138 4.49944 -5.38363
504 168 5 -0.82 -0.893765 4.48965 -5.46574
505 169 3 0.41 6.43086 3.13628 -6.51171
506 169 3 0.41 7.15312 4.54705 -6.56845
507 169 5 -0.82 7.3556 3.54101 -6.48041
508 170 3 0.41 5.93022 -0.938316 -2.30845
509 170 3 0.41 5.36917 0.41213 -2.8657
510 170 5 -0.82 5.34108 -0.164985 -2.00435
511 171 3 0.41 2.87551 -0.869654 6.91137
512 171 3 0.41 1.40199 12.4913 6.5308
513 171 5 -0.82 1.95007 -0.653885 6.62684
514 172 3 0.41 2.82784 8.07461 21.6941
515 172 3 0.41 3.70434 6.85562 21.846
516 172 5 -0.82 3.74622 7.86686 21.9003
517 173 3 0.41 7.28477 5.15751 6.09758
518 173 3 0.41 6.49733 5.63492 7.56976
519 173 5 -0.82 6.58909 4.93596 6.80909
520 174 3 0.41 5.0688 10.9465 20.6871
521 174 3 0.41 5.58586 10.9679 19.1893
522 174 5 -0.82 4.94319 11.4742 19.8054
523 175 3 0.41 3.97786 2.61206 12.1432
524 175 3 0.41 2.63762 1.68285 11.8417
525 175 5 -0.82 3.32591 2.27508 11.4056
526 176 3 0.41 3.5895 0.824475 5.19311
527 176 3 0.41 3.16467 1.21806 3.6362
528 176 5 -0.82 2.92138 1.3195 4.64201
529 177 3 0.41 2.86748 2.35216 9.65826
530 177 3 0.41 1.91372 1.36932 8.79199
531 177 5 -0.82 2.17357 2.33116 8.85251
532 178 3 0.41 10.5264 11.2946 -7.79552
533 178 3 0.41 10.4962 10.0083 -8.74194
534 178 5 -0.82 10.8715 10.9673 -8.703
535 179 3 0.41 10.2921 3.30261 -21.6962
536 179 3 0.41 11.0368 4.40026 -20.8828
537 179 5 -0.82 10.8604 4.10392 -21.832
538 180 3 0.41 2.58963 -1.00078 -6.33765
539 180 3 0.41 3.69262 0.105845 -6.69944
540 180 5 -0.82 3.59986 -0.860064 -6.51819
541 181 3 0.41 10.3314 1.41873 -1.20731
542 181 3 0.41 11.0551 0.577286 -0.0245505
543 181 5 -0.82 10.7978 0.520546 -0.989071
544 182 3 0.41 4.35557 7.68311 -9.12609
545 182 3 0.41 2.78797 7.99329 -9.50882
546 182 5 -0.82 3.69951 7.69064 -9.89359
547 183 3 0.41 5.96669 5.50162 -13.5316
548 183 3 0.41 4.75002 4.89639 -14.3084
549 183 5 -0.82 5.32361 4.71225 -13.4952
550 184 3 0.41 4.18605 1.02721 19.6018
551 184 3 0.41 2.61455 1.08142 19.4681
552 184 5 -0.82 3.41331 1.62055 19.1792
553 185 3 0.41 3.19839 5.25177 -22.5222
554 185 3 0.41 3.57745 6.68844 -21.8828
555 185 5 -0.82 2.95146 5.84177 -21.7679
556 186 3 0.41 9.74292 -0.00140814 -10.1008
557 186 3 0.41 11.1343 0.0234685 -11.0304
558 186 5 -0.82 10.7635 -0.202736 -10.1413
559 187 3 0.41 1.56827 4.02693 8.18538
560 187 3 0.41 0.700112 4.94255 7.24533
561 187 5 -0.82 0.794021 4.67304 8.22754
562 188 3 0.41 3.34022 10.8416 -19.5482
563 188 3 0.41 3.05312 9.34233 -19.4433
564 188 5 -0.82 3.07952 10.0613 -20.1489
565 189 3 0.41 4.4487 7.53179 16.4621
566 189 3 0.41 3.65536 7.02245 17.7966
567 189 5 -0.82 3.66248 6.98234 16.7938
568 190 3 0.41 -1.35842 -1.33776 4.65559
569 190 3 0.41 -0.920127 0.0616847 3.98067
570 190 5 -0.82 -0.680551 -0.541552 4.74397
571 191 3 0.41 0.704205 10.8487 15.9841
572 191 3 0.41 0.189305 12.4442 15.73
573 191 5 -0.82 0.0838941 11.4382 15.4305
574 192 3 0.41 1.2255 9.61534 22.4368
575 192 3 0.41 1.8615 10.4455 21.192
576 192 5 -0.82 1.65226 10.4965 22.1796
577 193 3 0.41 0.947064 2.97456 13.4755
578 193 3 0.41 0.821839 2.28962 12.0557
579 193 5 -0.82 0.715093 3.15724 12.5233
580 194 3 0.41 5.58968 -1.22253 4.63866
581 194 3 0.41 3.96598 -1.32964 4.426
582 194 5 -0.82 4.69488 -1.02728 5.05961
583 195 3 0.41 8.13215 11.9166 7.59314
584 195 3 0.41 7.54566 12.3635 6.13066
585 195 5 -0.82 7.65429 -1.31227 7.08922
586 196 3 0.41 11.4085 -0.849954 -22.2718
587 196 3 0.41 11.2964 11.8223 -21.3474
588 196 5 -0.82 10.8182 12.3429 -22.0338
589 197 3 0.41 8.20425 2.40053 6.51328
590 197 3 0.41 7.74246 3.60087 7.35996
591 197 5 -0.82 7.76297 2.56202 7.38601
592 198 3 0.41 3.51103 5.59845 -16.6682
593 198 3 0.41 2.7535 5.44433 -15.4398
594 198 5 -0.82 3.68604 5.6936 -15.6631
595 199 3 0.41 1.63465 11.2202 -14.0965
596 199 3 0.41 1.79001 11.4335 -15.7343
597 199 5 -0.82 1.44981 10.8139 -15.0139
598 200 3 0.41 5.26585 12.1686 7.57075
599 200 3 0.41 4.77986 10.7463 6.90448
600 200 5 -0.82 5.11504 11.2145 7.73888
601 201 3 0.41 6.61729 10.3713 10.407
602 201 3 0.41 5.758 10.7897 11.781
603 201 5 -0.82 6.59251 11.0359 11.182
604 202 3 0.41 -1.06029 3.87034 -16.7093
605 202 3 0.41 -0.405591 2.31246 -16.6741
606 202 5 -0.82 -0.659646 3.14247 -16.1367
607 203 3 0.41 -1.16088 10.8943 14.6674
608 203 3 0.41 12.0694 10.0674 13.5436
609 203 5 -0.82 11.8971 10.6187 14.3954
610 204 3 0.41 9.27428 -1.04744 -21.8188
611 204 3 0.41 8.09745 -0.00964602 -21.8783
612 204 5 -0.82 8.25681 -0.992445 -21.8482
613 205 3 0.41 11.3557 2.4576 -11.2217
614 205 3 0.41 -1.24483 3.27692 -11.2786
615 205 5 -0.82 12.4027 2.28831 -11.3475
616 206 3 0.41 3.91233 4.56074 7.77672
617 206 3 0.41 3.56138 3.06422 8.17585
618 206 5 -0.82 4.26747 3.61637 7.71021
619 207 3 0.41 10.5032 1.81818 6.75507
620 207 3 0.41 12.0011 2.32143 7.09363
621 207 5 -0.82 11.1794 2.62797 6.62553
622 208 3 0.41 11.896 5.81223 13.3241
623 208 3 0.41 11.1895 7.23626 13.8827
624 208 5 -0.82 11.8705 6.87345 13.2048
625 209 3 0.41 9.36481 7.23122 -15.4394
626 209 3 0.41 10.1807 8.42361 -16.0253
627 209 5 -0.82 10.1103 7.41178 -16.0814
628 210 3 0.41 4.19894 10.2417 15.7545
629 210 3 0.41 5.65013 9.3178 15.7763
630 210 5 -0.82 5.23177 10.2762 15.9555
631 211 3 0.41 5.65006 11.2159 1.58693
632 211 3 0.41 4.29512 11.9659 1.91444
633 211 5 -0.82 4.99722 11.3382 2.31704
634 212 3 0.41 -0.16333 3.82016 18.6729
635 212 3 0.41 12.3894 3.18876 19.0877
636 212 5 -0.82 -0.909358 3.9105 19.2946
637 213 3 0.41 5.17315 0.678008 2.51817
638 213 3 0.41 6.38904 1.74422 2.35391
639 213 5 -0.82 6.05556 0.989364 2.95763
640 214 3 0.41 1.52438 7.61484 2.22129
641 214 3 0.41 2.93804 7.55717 3.04082
642 214 5 -0.82 2.00167 7.12005 3.03406
643 215 3 0.41 9.14731 9.53583 -17.45
644 215 3 0.41 8.86004 8.79313 -18.8571
645 215 5 -0.82 8.53806 9.54224 -18.2252
646 216 3 0.41 5.3746 1.45989 10.4014
647 216 3 0.41 5.26608 2.93493 9.4783
648 216 5 -0.82 5.70329 2.00886 9.56666
649 217 3 0.41 -0.838651 7.17452 -8.04269
650 217 3 0.41 -1.39858 5.74861 -7.58029
651 217 5 -0.82 12.2972 6.67338 -7.86272
652 218 3 0.41 11.2407 8.92458 -0.0597294
653 218 3 0.41 10.2107 7.97783 -0.892791
654 218 5 -0.82 10.5044 8.9094 -0.76942
655 219 3 0.41 9.14348 1.80325 -10.9813
656 219 3 0.41 9.20728 3.32461 -10.4587
657 219 5 -0.82 9.56556 2.72958 -11.2034
658 220 3 0.41 11.6216 3.27259 21.7067
659 220 3 0.41 11.2628 4.50605 22.5785
660 220 5 -0.82 11.8641 4.24538 21.8631
661 221 3 0.41 8.98179 2.9344 -12.6398
662 221 3 0.41 7.92628 1.96614 -13.4266
663 221 5 -0.82 8.44608 2.83059 -13.4982
664 222 3 0.41 5.42993 7.57994 -18.2172
665 222 3 0.41 5.00038 8.96703 -18.7468
666 222 5 -0.82 4.55615 7.99933 -18.5442
667 223 3 0.41 10.4089 8.28746 4.72755
668 223 3 0.41 9.43366 9.45435 5.35341
669 223 5 -0.82 10.2756 9.29608 4.86199
670 224 3 0.41 4.21203 11.3826 12.8788
671 224 3 0.41 3.95697 9.91526 13.1837
672 224 5 -0.82 4.35577 10.4906 12.4646
673 225 3 0.41 10.302 9.36882 -2.36522
674 225 3 0.41 9.94994 8.43554 -3.60576
675 225 5 -0.82 10.306 9.36263 -3.37456
676 226 3 0.41 12.0648 2.67537 16.9215
677 226 3 0.41 11.3067 1.42661 17.61
678 226 5 -0.82 11.5044 2.47752 17.7325
679 227 3 0.41 -1.07568 1.94243 22.3646
680 227 3 0.41 -0.251612 0.517828 22.141
681 227 5 -0.82 -0.335769 1.46996 21.8706
682 228 3 0.41 7.51527 6.52758 -2.08194
683 228 3 0.41 7.60706 5.03941 -2.59428
684 228 5 -0.82 7.32306 5.56342 -1.78392
685 229 3 0.41 10.6007 5.78322 -22.2364
686 229 3 0.41 10.5825 7.3367 -21.9978
687 229 5 -0.82 9.95362 6.54672 -21.9002
688 230 3 0.41 6.50734 8.07861 -2.81243
689 230 3 0.41 7.11628 8.61486 -1.37496
690 230 5 -0.82 7.41379 8.27127 -2.30247
691 231 3 0.41 -0.388677 8.16641 -1.5146
692 231 3 0.41 12.3291 8.8379 -2.29676
693 231 5 -0.82 -0.805648 8.33394 -2.46874
694 232 3 0.41 11.7501 7.69678 -5.57453
695 232 3 0.41 11.4166 9.10419 -4.80234
696 232 5 -0.82 11.8119 8.67213 -5.63598
697 233 3 0.41 -1.20386 9.99847 -6.16927
698 233 3 0.41 -0.349753 9.74019 -7.55819
699 233 5 -0.82 -0.642164 10.4747 -6.8989
700 234 3 0.41 11.1648 3.53571 -0.553338
701 234 3 0.41 12.3066 4.05283 0.357891
702 234 5 -0.82 11.5718 3.31398 0.328401
703 235 3 0.41 10.7397 9.40332 12.0504
704 235 3 0.41 9.47889 8.67892 11.5588
705 235 5 -0.82 9.72936 9.58779 11.9597
706 236 3 0.41 3.29776 9.90083 -2.35412
707 236 3 0.41 2.43075 8.49873 -2.71907
708 236 5 -0.82 2.42544 9.53845 -2.64538
709 237 3 0.41 2.5863 10.1046 17.6271
710 237 3 0.41 2.54328 11.62 16.9575
711 237 5 -0.82 2.44837 10.6321 16.7622
712 238 3 0.41 8.25585 12.1628 20.0758
713 238 3 0.41 8.27452 10.9205 18.9762
714 238 5 -0.82 8.22595 11.923 19.0881
715 239 3 0.41 9.40239 4.74262 13.2378
716 239 3 0.41 10.5746 4.57295 12.1116
717 239 5 -0.82 9.58182 4.53442 12.223
718 240 3 0.41 1.90696 9.03115 -14.9354
719 240 3 0.41 1.64687 7.54641 -15.5469
720 240 5 -0.82 2.00436 8.05074 -14.7039
721 241 3 0.41 0.456342 8.51207 3.64323
722 241 3 0.41 -0.320231 7.1259 3.21407
723 241 5 -0.82 -0.439244 8.05268 3.58257
724 242 3 0.41 7.75205 4.1564 -4.63857
725 242 3 0.41 8.71687 3.1195 -3.7612
726 242 5 -0.82 8.44511 4.12167 -3.94359
727 243 3 0.41 3.14615 -1.0796 -15.8627
728 243 3 0.41 1.56471 -0.497487 -15.9336
729 243 5 -0.82 2.22789 -1.12673 -16.3974
730 244 3 0.41 12.1932 11.0611 21.8084
731 244 3 0.41 -0.286945 10.7871 21.3822
732 244 5 -0.82 -1.20851 10.3185 21.4751
733 245 3 0.41 6.89843 2.21392 -16.9124
734 245 3 0.41 7.9153 0.920764 -16.5267
735 245 5 -0.82 7.68736 1.64766 -17.2455
736 246 3 0.41 11.454 -0.566192 20.1937
737 246 3 0.41 11.7781 0.365315 19.0221
738 246 5 -0.82 11.1443 0.329505 19.8247
739 247 3 0.41 11.6487 -0.756636 16.9356
740 247 3 0.41 11.2665 -0.235904 15.583
741 247 5 -0.82 11.4706 0.12642 16.4924
742 248 3 0.41 6.88234 9.92422 0.455148
743 248 3 0.41 7.38565 11.3314 0.993243
744 248 5 -0.82 6.69777 10.9045 0.340581
745 249 3 0.41 8.08631 5.83466 -13.5706
746 249 3 0.41 7.33889 6.84595 -14.6717
747 249 5 -0.82 7.96082 6.01319 -14.5579
748 250 3 0.41 8.11806 4.51467 21.2749
749 250 3 0.41 6.9353 4.02761 22.3632
750 250 5 -0.82 7.44753 4.80601 21.9773
751 251 3 0.41 1.5701 10.0928 19.189
752 251 3 0.41 -0.0425416 10.0635 19.193